 Entering Link 1 = C:\G09W\l1.exe PID=     28480.
  
 Copyright (c) 1988,1990,1992,1993,1995,1998,2003,2009,2013,
            Gaussian, Inc.  All Rights Reserved.
  
 This is part of the Gaussian(R) 09 program.  It is based on
 the Gaussian(R) 03 system (copyright 2003, Gaussian, Inc.),
 the Gaussian(R) 98 system (copyright 1998, Gaussian, Inc.),
 the Gaussian(R) 94 system (copyright 1995, Gaussian, Inc.),
 the Gaussian 92(TM) system (copyright 1992, Gaussian, Inc.),
 the Gaussian 90(TM) system (copyright 1990, Gaussian, Inc.),
 the Gaussian 88(TM) system (copyright 1988, Gaussian, Inc.),
 the Gaussian 86(TM) system (copyright 1986, Carnegie Mellon
 University), and the Gaussian 82(TM) system (copyright 1983,
 Carnegie Mellon University). Gaussian is a federally registered
 trademark of Gaussian, Inc.
  
 This software contains proprietary and confidential information,
 including trade secrets, belonging to Gaussian, Inc.
  
 This software is provided under written license and may be
 used, copied, transmitted, or stored only in accord with that
 written license.
  
 The following legend is applicable only to US Government
 contracts under FAR:
  
                    RESTRICTED RIGHTS LEGEND
  
 Use, reproduction and disclosure by the US Government is
 subject to restrictions as set forth in subparagraphs (a)
 and (c) of the Commercial Computer Software - Restricted
 Rights clause in FAR 52.227-19.
  
 Gaussian, Inc.
 340 Quinnipiac St., Bldg. 40, Wallingford CT 06492
  
  
 ---------------------------------------------------------------
 Warning -- This program may not be used in any manner that
 competes with the business of Gaussian, Inc. or will provide
 assistance to any competitor of Gaussian, Inc.  The licensee
 of this program is prohibited from giving any competitor of
 Gaussian, Inc. access to this program.  By using this program,
 the user acknowledges that Gaussian, Inc. is engaged in the
 business of creating and licensing software in the field of
 computational chemistry and represents and warrants to the
 licensee that it is not a competitor of Gaussian, Inc. and that
 it will not use this program in any manner prohibited above.
 ---------------------------------------------------------------
  

 Cite this work as:
 Gaussian 09, Revision D.01,
 M. J. Frisch, G. W. Trucks, H. B. Schlegel, G. E. Scuseria, 
 M. A. Robb, J. R. Cheeseman, G. Scalmani, V. Barone, B. Mennucci, 
 G. A. Petersson, H. Nakatsuji, M. Caricato, X. Li, H. P. Hratchian, 
 A. F. Izmaylov, J. Bloino, G. Zheng, J. L. Sonnenberg, M. Hada, 
 M. Ehara, K. Toyota, R. Fukuda, J. Hasegawa, M. Ishida, T. Nakajima, 
 Y. Honda, O. Kitao, H. Nakai, T. Vreven, J. A. Montgomery, Jr., 
 J. E. Peralta, F. Ogliaro, M. Bearpark, J. J. Heyd, E. Brothers, 
 K. N. Kudin, V. N. Staroverov, T. Keith, R. Kobayashi, J. Normand, 
 K. Raghavachari, A. Rendell, J. C. Burant, S. S. Iyengar, J. Tomasi, 
 M. Cossi, N. Rega, J. M. Millam, M. Klene, J. E. Knox, J. B. Cross, 
 V. Bakken, C. Adamo, J. Jaramillo, R. Gomperts, R. E. Stratmann, 
 O. Yazyev, A. J. Austin, R. Cammi, C. Pomelli, J. W. Ochterski, 
 R. L. Martin, K. Morokuma, V. G. Zakrzewski, G. A. Voth, 
 P. Salvador, J. J. Dannenberg, S. Dapprich, A. D. Daniels, 
 O. Farkas, J. B. Foresman, J. V. Ortiz, J. Cioslowski, 
 and D. J. Fox, Gaussian, Inc., Wallingford CT, 2013.
 
 ******************************************
 Gaussian 09:  IA32W-G09RevD.01 24-Apr-2013
                24-Oct-2025 
 ******************************************
 %chk=C:\Users\Xc0rp\Desktop\quimica\NaCl-1_0.chk
 --------------
 #p b3lyp/3-21g
 --------------
 1/38=1/1;
 2/12=2,17=6,18=5,40=1/2;
 3/5=5,11=2,16=1,25=1,30=1,74=-5/1,2,3;
 4//1;
 5/5=2,38=5/2;
 6/7=2,8=2,9=2,10=2,28=1/1;
 99/5=1,9=1/99;
 Leave Link    1 at Fri Oct 24 08:58:22 2025, MaxMem=           0 cpu:         0.0
 (Enter C:\G09W\l101.exe)
 -------------------
 Title Card Required
 -------------------
 Symbolic Z-matrix:
 Charge = -1 Multiplicity = 2
 Na                    0.        0.        2. 
 Cl                    0.        0.        0. 
 
 NAtoms=      2 NQM=        2 NQMF=       0 NMMI=      0 NMMIF=      0
                NMic=       0 NMicF=      0.
                    Isotopes and Nuclear Properties:
 (Nuclear quadrupole moments (NQMom) in fm**2, nuclear magnetic moments (NMagM)
  in nuclear magnetons)

  Atom         1           2
 IAtWgt=          23          35
 AtmWgt=  22.9897697  34.9688527
 NucSpn=           3           3
 AtZEff=   0.0000000   0.0000000
 NQMom=   10.4000000  -8.1650000
 NMagM=    2.2175200   0.8218740
 AtZNuc=  11.0000000  17.0000000
 Leave Link  101 at Fri Oct 24 08:58:22 2025, MaxMem=    33554432 cpu:         0.0
 (Enter C:\G09W\l202.exe)
                          Input orientation:                          
 ---------------------------------------------------------------------
 Center     Atomic      Atomic             Coordinates (Angstroms)
 Number     Number       Type             X           Y           Z
 ---------------------------------------------------------------------
      1         11           0        0.000000    0.000000    2.000000
      2         17           0        0.000000    0.000000    0.000000
 ---------------------------------------------------------------------
 Stoichiometry    ClNa(1-,2)
 Framework group  C*V[C*(NaCl)]
 Deg. of freedom     1
 Full point group                 C*V     NOp   4
 Largest Abelian subgroup         C2V     NOp   4
 Largest concise Abelian subgroup C1      NOp   1
                         Standard orientation:                         
 ---------------------------------------------------------------------
 Center     Atomic      Atomic             Coordinates (Angstroms)
 Number     Number       Type             X           Y           Z
 ---------------------------------------------------------------------
      1         11           0        0.000000    0.000000   -1.214286
      2         17           0        0.000000    0.000000    0.785714
 ---------------------------------------------------------------------
 Rotational constants (GHZ):      0.0000000      9.1087599      9.1087599
 Leave Link  202 at Fri Oct 24 08:58:22 2025, MaxMem=    33554432 cpu:         0.0
 (Enter C:\G09W\l301.exe)
 Standard basis: 3-21G (6D, 7F)
 Ernie: Thresh=  0.10000D-02 Tol=  0.10000D-05 Strict=F.
 There are    14 symmetry adapted cartesian basis functions of A1  symmetry.
 There are     0 symmetry adapted cartesian basis functions of A2  symmetry.
 There are     6 symmetry adapted cartesian basis functions of B1  symmetry.
 There are     6 symmetry adapted cartesian basis functions of B2  symmetry.
 There are    14 symmetry adapted basis functions of A1  symmetry.
 There are     0 symmetry adapted basis functions of A2  symmetry.
 There are     6 symmetry adapted basis functions of B1  symmetry.
 There are     6 symmetry adapted basis functions of B2  symmetry.
    26 basis functions,    54 primitive gaussians,    26 cartesian basis functions
    15 alpha electrons       14 beta electrons
       nuclear repulsion energy        49.4780690032 Hartrees.



 Warning!  Cl atom    2 may be hypervalent but has no d functions.



 IExCor=  402 DFT=T Ex+Corr=B3LYP ExCW=0 ScaHFX=  0.200000
 ScaDFX=  0.800000  0.720000  1.000000  0.810000 ScalE2=  1.000000  1.000000
 IRadAn=      0 IRanWt=     -1 IRanGd=            0 ICorTp=0 IEmpDi=  4
 NAtoms=    2 NActive=    2 NUniq=    2 SFac= 1.00D+00 NAtFMM=   60 NAOKFM=F Big=F
 Integral buffers will be    262144 words long.
 Raffenetti 2 integral format.
 Two-electron integral symmetry is turned on.
 Leave Link  301 at Fri Oct 24 08:58:23 2025, MaxMem=    33554432 cpu:         0.0
 (Enter C:\G09W\l302.exe)
 NPDir=0 NMtPBC=     1 NCelOv=     1 NCel=       1 NClECP=     1 NCelD=      1
         NCelK=      1 NCelE2=     1 NClLst=     1 CellRange=     0.0.
 One-electron integrals computed using PRISM.
 NBasis=    26 RedAO= T EigKep=  8.93D-02  NBF=    14     0     6     6
 NBsUse=    26 1.00D-06 EigRej= -1.00D+00 NBFU=    14     0     6     6
 Precomputing XC quadrature grid using
 IXCGrd= 4 IRadAn=           0 IRanWt=          -1 IRanGd=           0 AccXCQ= 0.00D+00.
 Generated NRdTot=       0 NPtTot=           0 NUsed=           0 NTot=          16
 NSgBfM=    25    25    25    25    25 MxSgAt=     2 MxSgA2=     2.
 Leave Link  302 at Fri Oct 24 08:58:23 2025, MaxMem=    33554432 cpu:         0.0
 (Enter C:\G09W\l303.exe)
 DipDrv:  MaxL=1.
 Leave Link  303 at Fri Oct 24 08:58:23 2025, MaxMem=    33554432 cpu:         0.0
 (Enter C:\G09W\l401.exe)
 ExpMin= 2.44D-02 ExpMax= 1.38D+03 ExpMxC= 1.38D+03 IAcc=3 IRadAn=         5 AccDes= 0.00D+00
 Harris functional with IExCor=  402 and IRadAn=       5 diagonalized for initial guess.
 HarFok:  IExCor=  402 AccDes= 0.00D+00 IRadAn=         5 IDoV= 1 UseB2=F ITyADJ=14
 ICtDFT=  3500011 ScaDFX=  1.000000  1.000000  1.000000  1.000000
 FoFCou: FMM=F IPFlag=           0 FMFlag=      100000 FMFlg1=           0
         NFxFlg=           0 DoJE=T BraDBF=F KetDBF=T FulRan=T
         wScrn=  0.000000 ICntrl=     500 IOpCl=  0 I1Cent=   200000004 NGrid=           0
         NMat0=    1 NMatS0=      1 NMatT0=    0 NMatD0=    1 NMtDS0=    0 NMtDT0=    0
 Petite list used in FoFCou.
 Harris En= -619.321965626107    
 JPrj=0 DoOrth=F DoCkMO=F.
 Initial guess orbital symmetries:
 Alpha Orbitals:
       Occupied  (SG) (SG) (SG) (SG) (PI) (PI) (SG) (SG) (PI) (PI)
                 (SG) (SG) (PI) (PI) (SG)
       Virtual   (PI) (PI) (SG) (SG) (PI) (PI) (SG) (SG) (PI) (PI)
                 (SG)
 Beta  Orbitals:
       Occupied  (SG) (SG) (SG) (SG) (PI) (PI) (SG) (SG) (PI) (PI)
                 (SG) (SG) (PI) (PI)
       Virtual   (SG) (PI) (PI) (SG) (SG) (PI) (PI) (SG) (SG) (PI)
                 (PI) (SG)
 The electronic state of the initial guess is 2-SG.
 Initial guess <Sx>= 0.0000 <Sy>= 0.0000 <Sz>= 0.5000 <S**2>= 0.7500 S= 0.5000
 Leave Link  401 at Fri Oct 24 08:58:23 2025, MaxMem=    33554432 cpu:         0.0
 (Enter C:\G09W\l502.exe)
 UHF open shell SCF:
 Using DIIS extrapolation, IDIIS=  1040.
 Integral symmetry usage will be decided dynamically.
 Keep R1 and R2 ints in memory in symmetry-blocked form, NReq=939475.
 IVT=       20802 IEndB=       20802 NGot=    33554432 MDV=    33495249
 LenX=    33495249 LenY=    33494132
 Requested convergence on RMS density matrix=1.00D-08 within 128 cycles.
 Requested convergence on MAX density matrix=1.00D-06.
 Requested convergence on             energy=1.00D-06.
 No special actions if energy rises.
 FoFCou: FMM=F IPFlag=           0 FMFlag=           0 FMFlg1=           0
         NFxFlg=           0 DoJE=F BraDBF=F KetDBF=F FulRan=T
         wScrn=  0.000000 ICntrl=     600 IOpCl=  0 I1Cent=           0 NGrid=           0
         NMat0=    1 NMatS0=    351 NMatT0=    0 NMatD0=    1 NMtDS0=    0 NMtDT0=    0
 Petite list used in FoFCou.

 Cycle   1  Pass 1  IDiag  1:
 E= -619.316405781826    
 DIIS: error= 2.39D-02 at cycle   1 NSaved=   1.
 NSaved= 1 IEnMin= 1 EnMin= -619.316405781826     IErMin= 1 ErrMin= 2.39D-02
 ErrMax= 2.39D-02  0.00D+00 EMaxC= 1.00D-01 BMatC= 7.36D-02 BMatP= 7.36D-02
 IDIUse=3 WtCom= 7.61D-01 WtEn= 2.39D-01
 Coeff-Com:  0.100D+01
 Coeff-En:   0.100D+01
 Coeff:      0.100D+01
 Gap=     0.078 Goal=   None    Shift=    0.000
 Gap=     0.110 Goal=   None    Shift=    0.000
 GapD=    0.078 DampG=0.500 DampE=0.500 DampFc=0.2500 IDamp=-1.
 Damping current iteration by 2.50D-01
 RMSDP=2.42D-02 MaxDP=3.26D-01              OVMax= 0.00D+00

 Cycle   2  Pass 1  IDiag  1:
 E= -619.327136146833     Delta-E=       -0.010730365007 Rises=F Damp=T
 DIIS: error= 1.30D-02 at cycle   2 NSaved=   2.
 NSaved= 2 IEnMin= 2 EnMin= -619.327136146833     IErMin= 2 ErrMin= 1.30D-02
 ErrMax= 1.30D-02  0.00D+00 EMaxC= 1.00D-01 BMatC= 2.05D-02 BMatP= 7.36D-02
 IDIUse=3 WtCom= 8.70D-01 WtEn= 1.30D-01
 Coeff-Com: -0.795D+00 0.179D+01
 Coeff-En:   0.000D+00 0.100D+01
 Coeff:     -0.692D+00 0.169D+01
 Gap=     0.081 Goal=   None    Shift=    0.000
 Gap=     0.175 Goal=   None    Shift=    0.000
 RMSDP=1.33D-02 MaxDP=2.36D-01 DE=-1.07D-02 OVMax= 0.00D+00

 Cycle   3  Pass 1  IDiag  1:
 E= -619.350447656103     Delta-E=       -0.023311509270 Rises=F Damp=F
 DIIS: error= 9.43D-04 at cycle   3 NSaved=   3.
 NSaved= 3 IEnMin= 3 EnMin= -619.350447656103     IErMin= 3 ErrMin= 9.43D-04
 ErrMax= 9.43D-04  0.00D+00 EMaxC= 1.00D-01 BMatC= 6.57D-05 BMatP= 2.05D-02
 IDIUse=3 WtCom= 9.91D-01 WtEn= 9.43D-03
 Coeff-Com: -0.607D-02 0.160D-01 0.990D+00
 Coeff-En:   0.000D+00 0.000D+00 0.100D+01
 Coeff:     -0.602D-02 0.158D-01 0.990D+00
 Gap=     0.078 Goal=   None    Shift=    0.000
 Gap=     0.188 Goal=   None    Shift=    0.000
 RMSDP=2.26D-03 MaxDP=3.74D-02 DE=-2.33D-02 OVMax= 0.00D+00

 Cycle   4  Pass 1  IDiag  1:
 E= -619.350665948957     Delta-E=       -0.000218292853 Rises=F Damp=F
 DIIS: error= 2.08D-04 at cycle   4 NSaved=   4.
 NSaved= 4 IEnMin= 4 EnMin= -619.350665948957     IErMin= 4 ErrMin= 2.08D-04
 ErrMax= 2.08D-04  0.00D+00 EMaxC= 1.00D-01 BMatC= 8.19D-06 BMatP= 6.57D-05
 IDIUse=3 WtCom= 9.98D-01 WtEn= 2.08D-03
 Coeff-Com: -0.164D-01 0.128D-01-0.272D+00 0.128D+01
 Coeff-En:   0.000D+00 0.000D+00 0.000D+00 0.100D+01
 Coeff:     -0.164D-01 0.127D-01-0.271D+00 0.127D+01
 Gap=     0.079 Goal=   None    Shift=    0.000
 Gap=     0.189 Goal=   None    Shift=    0.000
 RMSDP=7.85D-04 MaxDP=1.40D-02 DE=-2.18D-04 OVMax= 0.00D+00

 Cycle   5  Pass 1  IDiag  1:
 E= -619.350683445076     Delta-E=       -0.000017496120 Rises=F Damp=F
 DIIS: error= 2.89D-05 at cycle   5 NSaved=   5.
 NSaved= 5 IEnMin= 5 EnMin= -619.350683445076     IErMin= 5 ErrMin= 2.89D-05
 ErrMax= 2.89D-05  0.00D+00 EMaxC= 1.00D-01 BMatC= 9.89D-08 BMatP= 8.19D-06
 IDIUse=1 WtCom= 1.00D+00 WtEn= 0.00D+00
 Coeff-Com: -0.981D-03 0.206D-02 0.252D-01-0.135D+00 0.111D+01
 Coeff:     -0.981D-03 0.206D-02 0.252D-01-0.135D+00 0.111D+01
 Gap=     0.079 Goal=   None    Shift=    0.000
 Gap=     0.189 Goal=   None    Shift=    0.000
 RMSDP=4.33D-05 MaxDP=7.54D-04 DE=-1.75D-05 OVMax= 0.00D+00

 Cycle   6  Pass 1  IDiag  1:
 E= -619.350683525819     Delta-E=       -0.000000080742 Rises=F Damp=F
 DIIS: error= 2.55D-06 at cycle   6 NSaved=   6.
 NSaved= 6 IEnMin= 6 EnMin= -619.350683525819     IErMin= 6 ErrMin= 2.55D-06
 ErrMax= 2.55D-06  0.00D+00 EMaxC= 1.00D-01 BMatC= 6.09D-10 BMatP= 9.89D-08
 IDIUse=1 WtCom= 1.00D+00 WtEn= 0.00D+00
 Coeff-Com:  0.388D-03-0.509D-03-0.278D-03-0.144D-02-0.107D+00 0.111D+01
 Coeff:      0.388D-03-0.509D-03-0.278D-03-0.144D-02-0.107D+00 0.111D+01
 Gap=     0.079 Goal=   None    Shift=    0.000
 Gap=     0.189 Goal=   None    Shift=    0.000
 RMSDP=6.73D-06 MaxDP=1.24D-04 DE=-8.07D-08 OVMax= 0.00D+00

 Cycle   7  Pass 1  IDiag  1:
 E= -619.350683527009     Delta-E=       -0.000000001191 Rises=F Damp=F
 DIIS: error= 5.87D-07 at cycle   7 NSaved=   7.
 NSaved= 7 IEnMin= 7 EnMin= -619.350683527009     IErMin= 7 ErrMin= 5.87D-07
 ErrMax= 5.87D-07  0.00D+00 EMaxC= 1.00D-01 BMatC= 2.60D-11 BMatP= 6.09D-10
 IDIUse=1 WtCom= 1.00D+00 WtEn= 0.00D+00
 Coeff-Com: -0.690D-05-0.401D-05-0.460D-03 0.332D-02-0.877D-02-0.165D+00
 Coeff-Com:  0.117D+01
 Coeff:     -0.690D-05-0.401D-05-0.460D-03 0.332D-02-0.877D-02-0.165D+00
 Coeff:      0.117D+01
 Gap=     0.079 Goal=   None    Shift=    0.000
 Gap=     0.189 Goal=   None    Shift=    0.000
 RMSDP=4.28D-07 MaxDP=5.65D-06 DE=-1.19D-09 OVMax= 0.00D+00

 Cycle   8  Pass 1  IDiag  1:
 E= -619.350683527027     Delta-E=       -0.000000000017 Rises=F Damp=F
 DIIS: error= 3.81D-08 at cycle   8 NSaved=   8.
 NSaved= 8 IEnMin= 8 EnMin= -619.350683527027     IErMin= 8 ErrMin= 3.81D-08
 ErrMax= 3.81D-08  0.00D+00 EMaxC= 1.00D-01 BMatC= 2.01D-13 BMatP= 2.60D-11
 IDIUse=1 WtCom= 1.00D+00 WtEn= 0.00D+00
 Coeff-Com: -0.789D-05 0.108D-04 0.347D-04-0.224D-03 0.260D-02-0.236D-02
 Coeff-Com: -0.111D+00 0.111D+01
 Coeff:     -0.789D-05 0.108D-04 0.347D-04-0.224D-03 0.260D-02-0.236D-02
 Coeff:     -0.111D+00 0.111D+01
 Gap=     0.079 Goal=   None    Shift=    0.000
 Gap=     0.189 Goal=   None    Shift=    0.000
 RMSDP=8.35D-08 MaxDP=1.31D-06 DE=-1.73D-11 OVMax= 0.00D+00

 Cycle   9  Pass 1  IDiag  1:
 E= -619.350683527027     Delta-E=        0.000000000000 Rises=F Damp=F
 DIIS: error= 5.58D-09 at cycle   9 NSaved=   9.
 NSaved= 9 IEnMin= 9 EnMin= -619.350683527027     IErMin= 9 ErrMin= 5.58D-09
 ErrMax= 5.58D-09  0.00D+00 EMaxC= 1.00D-01 BMatC= 3.72D-15 BMatP= 2.01D-13
 IDIUse=1 WtCom= 1.00D+00 WtEn= 0.00D+00
 Coeff-Com: -0.337D-06 0.447D-06-0.499D-06-0.911D-05-0.305D-04 0.240D-02
 Coeff-Com: -0.128D-01-0.207D-01 0.103D+01
 Coeff:     -0.337D-06 0.447D-06-0.499D-06-0.911D-05-0.305D-04 0.240D-02
 Coeff:     -0.128D-01-0.207D-01 0.103D+01
 Gap=     0.079 Goal=   None    Shift=    0.000
 Gap=     0.189 Goal=   None    Shift=    0.000
 RMSDP=1.26D-08 MaxDP=2.01D-07 DE=-2.27D-13 OVMax= 0.00D+00

 Cycle  10  Pass 1  IDiag  1:
 E= -619.350683527027     Delta-E=        0.000000000000 Rises=F Damp=F
 DIIS: error= 1.09D-09 at cycle  10 NSaved=  10.
 NSaved=10 IEnMin= 9 EnMin= -619.350683527027     IErMin=10 ErrMin= 1.09D-09
 ErrMax= 1.09D-09  0.00D+00 EMaxC= 1.00D-01 BMatC= 1.39D-16 BMatP= 3.72D-15
 IDIUse=1 WtCom= 1.00D+00 WtEn= 0.00D+00
 Coeff-Com:  0.929D-08-0.188D-07 0.524D-07 0.864D-06-0.121D-04-0.188D-03
 Coeff-Com:  0.168D-02-0.363D-02-0.153D+00 0.116D+01
 Coeff:      0.929D-08-0.188D-07 0.524D-07 0.864D-06-0.121D-04-0.188D-03
 Coeff:      0.168D-02-0.363D-02-0.153D+00 0.116D+01
 Gap=     0.079 Goal=   None    Shift=    0.000
 Gap=     0.189 Goal=   None    Shift=    0.000
 RMSDP=1.48D-09 MaxDP=2.23D-08 DE= 0.00D+00 OVMax= 0.00D+00

 SCF Done:  E(UB3LYP) =  -619.350683527     A.U. after   10 cycles
            NFock= 10  Conv=0.15D-08     -V/T= 2.0033
 <Sx>= 0.0000 <Sy>= 0.0000 <Sz>= 0.5000 <S**2>= 0.7502 S= 0.5001
 <L.S>= 0.000000000000E+00
 KE= 6.173022339839D+02 PE=-1.582323648510D+03 EE= 2.961926619959D+02
 Annihilation of the first spin contaminant:
 S**2 before annihilation     0.7502,   after     0.7500
 Leave Link  502 at Fri Oct 24 08:58:23 2025, MaxMem=    33554432 cpu:         0.0
 (Enter C:\G09W\l601.exe)
 Copying SCF densities to generalized density rwf, IOpCl= 1 IROHF=0.

 **********************************************************************

            Population analysis using the SCF density.

 **********************************************************************

 Orbital symmetries:
 Alpha Orbitals:
       Occupied  (SG) (SG) (SG) (SG) (PI) (PI) (SG) (SG) (PI) (PI)
                 (SG) (SG) (PI) (PI) (SG)
       Virtual   (PI) (PI) (SG) (SG) (PI) (PI) (SG) (SG) (PI) (PI)
                 (SG)
 Beta  Orbitals:
       Occupied  (SG) (SG) (SG) (SG) (PI) (PI) (SG) (SG) (PI) (PI)
                 (SG) (SG) (PI) (PI)
       Virtual   (SG) (PI) (PI) (SG) (SG) (PI) (PI) (SG) (SG) (PI)
                 (PI) (SG)
 The electronic state is 2-SG.
 Alpha  occ. eigenvalues -- -100.55380 -38.01854  -9.12386  -6.89040  -6.88872
 Alpha  occ. eigenvalues --   -6.88872  -2.01287  -0.94796  -0.93719  -0.93719
 Alpha  occ. eigenvalues --   -0.55133  -0.10226  -0.09751  -0.09751   0.03710
 Alpha virt. eigenvalues --    0.11565   0.11565   0.13956   0.19771   0.23265
 Alpha virt. eigenvalues --    0.23265   0.29368   0.81153   0.82989   0.82989
 Alpha virt. eigenvalues --    1.00793
  Beta  occ. eigenvalues -- -100.55360 -38.01781  -9.12364  -6.88983  -6.88861
  Beta  occ. eigenvalues --   -6.88861  -2.01153  -0.94622  -0.93640  -0.93640
  Beta  occ. eigenvalues --   -0.55022  -0.10015  -0.09728  -0.09728
  Beta virt. eigenvalues --    0.09162   0.12604   0.12604   0.14401   0.21381
  Beta virt. eigenvalues --    0.24155   0.24155   0.30146   0.81231   0.83118
  Beta virt. eigenvalues --    0.83118   1.01037
          Condensed to atoms (all electrons):
               1          2
     1  Na  11.137602   0.085621
     2  Cl   0.085621  17.691156
          Atomic-Atomic Spin Densities.
               1          2
     1  Na   1.015561  -0.025385
     2  Cl  -0.025385   0.035209
 Mulliken charges and spin densities:
               1          2
     1  Na  -0.223223   0.990176
     2  Cl  -0.776777   0.009824
 Sum of Mulliken charges =  -1.00000   1.00000
 Mulliken charges and spin densities with hydrogens summed into heavy atoms:
               1          2
     1  Na  -0.223223   0.990176
     2  Cl  -0.776777   0.009824
 Electronic spatial extent (au):  <R**2>=            185.8295
 Charge=             -1.0000 electrons
 Dipole moment (field-independent basis, Debye):
    X=              0.0000    Y=              0.0000    Z=              3.8973  Tot=              3.8973
 Quadrupole moment (field-independent basis, Debye-Ang):
   XX=            -32.8637   YY=            -32.8637   ZZ=            -55.9054
   XY=              0.0000   XZ=              0.0000   YZ=              0.0000
 Traceless Quadrupole moment (field-independent basis, Debye-Ang):
   XX=              7.6805   YY=              7.6805   ZZ=            -15.3611
   XY=              0.0000   XZ=              0.0000   YZ=              0.0000
 Octapole moment (field-independent basis, Debye-Ang**2):
  XXX=              0.0000  YYY=              0.0000  ZZZ=            121.6207  XYY=              0.0000
  XXY=              0.0000  XXZ=             25.9487  XZZ=              0.0000  YZZ=              0.0000
  YYZ=             25.9487  XYZ=              0.0000
 Hexadecapole moment (field-independent basis, Debye-Ang**3):
 XXXX=           -142.1504 YYYY=           -142.1504 ZZZZ=           -740.5723 XXXY=              0.0000
 XXXZ=              0.0000 YYYX=              0.0000 YYYZ=              0.0000 ZZZX=              0.0000
 ZZZY=              0.0000 XXYY=            -47.3835 XXZZ=           -132.5414 YYZZ=           -132.5414
 XXYZ=              0.0000 YYXZ=              0.0000 ZZXY=              0.0000
 N-N= 4.947806900316D+01 E-N=-1.582323648432D+03  KE= 6.173022339839D+02
 Symmetry A1   KE= 5.048662120998D+02
 Symmetry A2   KE= 0.000000000000D+00
 Symmetry B1   KE= 5.621801094205D+01
 Symmetry B2   KE= 5.621801094205D+01
                          Isotropic Fermi Contact Couplings
        Atom                 a.u.       MegaHertz       Gauss      10(-4) cm-1
     1  Na(23)             0.14670     173.55151      61.92749      57.89055
     2  Cl(35)             0.03770      16.53059       5.89853       5.51401
 --------------------------------------------------------
       Center         ----  Spin Dipole Couplings  ----
                      3XX-RR        3YY-RR        3ZZ-RR
 --------------------------------------------------------
     1   Atom       -0.039440     -0.039440      0.078880
     2   Atom       -0.073298     -0.073298      0.146595
 --------------------------------------------------------
                        XY            XZ            YZ
 --------------------------------------------------------
     1   Atom        0.000000      0.000000      0.000000
     2   Atom        0.000000      0.000000      0.000000
 --------------------------------------------------------


 ---------------------------------------------------------------------------------
              Anisotropic Spin Dipole Couplings in Principal Axis System
 ---------------------------------------------------------------------------------

       Atom             a.u.   MegaHertz   Gauss  10(-4) cm-1        Axes

              Baa    -0.0394    -5.569    -1.987    -1.858  0.0000  1.0000  0.0000
     1 Na(23) Bbb    -0.0394    -5.569    -1.987    -1.858  1.0000  0.0000  0.0000
              Bcc     0.0789    11.139     3.975     3.716  0.0000  0.0000  1.0000
 
              Baa    -0.0733    -3.836    -1.369    -1.280  0.0000  1.0000  0.0000
     2 Cl(35) Bbb    -0.0733    -3.836    -1.369    -1.280  1.0000  0.0000  0.0000
              Bcc     0.1466     7.672     2.738     2.559  0.0000  0.0000  1.0000
 

 ---------------------------------------------------------------------------------

 No NMR shielding tensors so no spin-rotation constants.
 Leave Link  601 at Fri Oct 24 08:58:24 2025, MaxMem=    33554432 cpu:         0.0
 (Enter C:\G09W\l9999.exe)
 1|1|UNPC-ALEXHPENVY|SP|UB3LYP|3-21G|Cl1Na1(1-,2)|XC0RP|24-Oct-2025|0||
 #p b3lyp/3-21g||Title Card Required||-1,2|Na,0,0.,0.,2.|Cl,0,0.,0.,0.|
 |Version=IA32W-G09RevD.01|State=2-SG|HF=-619.3506835|S2=0.750173|S2-1=
 0.|S2A=0.75|RMSD=1.476e-009|Dipole=0.,0.,-1.5333219|Quadrupole=5.71029
 88,5.7102988,-11.4205976,0.,0.,0.|PG=C*V [C*(Na1Cl1)]||@


 BLACK HOLES SUCK.
 Job cpu time:       0 days  0 hours  0 minutes  2.0 seconds.
 File lengths (MBytes):  RWF=      5 Int=      0 D2E=      0 Chk=      1 Scr=      1
 Normal termination of Gaussian 09 at Fri Oct 24 08:58:24 2025.
