 Entering Link 1 = C:\G09W\l1.exe PID=     29960.
  
 Copyright (c) 1988,1990,1992,1993,1995,1998,2003,2009,2013,
            Gaussian, Inc.  All Rights Reserved.
  
 This is part of the Gaussian(R) 09 program.  It is based on
 the Gaussian(R) 03 system (copyright 2003, Gaussian, Inc.),
 the Gaussian(R) 98 system (copyright 1998, Gaussian, Inc.),
 the Gaussian(R) 94 system (copyright 1995, Gaussian, Inc.),
 the Gaussian 92(TM) system (copyright 1992, Gaussian, Inc.),
 the Gaussian 90(TM) system (copyright 1990, Gaussian, Inc.),
 the Gaussian 88(TM) system (copyright 1988, Gaussian, Inc.),
 the Gaussian 86(TM) system (copyright 1986, Carnegie Mellon
 University), and the Gaussian 82(TM) system (copyright 1983,
 Carnegie Mellon University). Gaussian is a federally registered
 trademark of Gaussian, Inc.
  
 This software contains proprietary and confidential information,
 including trade secrets, belonging to Gaussian, Inc.
  
 This software is provided under written license and may be
 used, copied, transmitted, or stored only in accord with that
 written license.
  
 The following legend is applicable only to US Government
 contracts under FAR:
  
                    RESTRICTED RIGHTS LEGEND
  
 Use, reproduction and disclosure by the US Government is
 subject to restrictions as set forth in subparagraphs (a)
 and (c) of the Commercial Computer Software - Restricted
 Rights clause in FAR 52.227-19.
  
 Gaussian, Inc.
 340 Quinnipiac St., Bldg. 40, Wallingford CT 06492
  
  
 ---------------------------------------------------------------
 Warning -- This program may not be used in any manner that
 competes with the business of Gaussian, Inc. or will provide
 assistance to any competitor of Gaussian, Inc.  The licensee
 of this program is prohibited from giving any competitor of
 Gaussian, Inc. access to this program.  By using this program,
 the user acknowledges that Gaussian, Inc. is engaged in the
 business of creating and licensing software in the field of
 computational chemistry and represents and warrants to the
 licensee that it is not a competitor of Gaussian, Inc. and that
 it will not use this program in any manner prohibited above.
 ---------------------------------------------------------------
  

 Cite this work as:
 Gaussian 09, Revision D.01,
 M. J. Frisch, G. W. Trucks, H. B. Schlegel, G. E. Scuseria, 
 M. A. Robb, J. R. Cheeseman, G. Scalmani, V. Barone, B. Mennucci, 
 G. A. Petersson, H. Nakatsuji, M. Caricato, X. Li, H. P. Hratchian, 
 A. F. Izmaylov, J. Bloino, G. Zheng, J. L. Sonnenberg, M. Hada, 
 M. Ehara, K. Toyota, R. Fukuda, J. Hasegawa, M. Ishida, T. Nakajima, 
 Y. Honda, O. Kitao, H. Nakai, T. Vreven, J. A. Montgomery, Jr., 
 J. E. Peralta, F. Ogliaro, M. Bearpark, J. J. Heyd, E. Brothers, 
 K. N. Kudin, V. N. Staroverov, T. Keith, R. Kobayashi, J. Normand, 
 K. Raghavachari, A. Rendell, J. C. Burant, S. S. Iyengar, J. Tomasi, 
 M. Cossi, N. Rega, J. M. Millam, M. Klene, J. E. Knox, J. B. Cross, 
 V. Bakken, C. Adamo, J. Jaramillo, R. Gomperts, R. E. Stratmann, 
 O. Yazyev, A. J. Austin, R. Cammi, C. Pomelli, J. W. Ochterski, 
 R. L. Martin, K. Morokuma, V. G. Zakrzewski, G. A. Voth, 
 P. Salvador, J. J. Dannenberg, S. Dapprich, A. D. Daniels, 
 O. Farkas, J. B. Foresman, J. V. Ortiz, J. Cioslowski, 
 and D. J. Fox, Gaussian, Inc., Wallingford CT, 2013.
 
 ******************************************
 Gaussian 09:  IA32W-G09RevD.01 24-Apr-2013
                20-Oct-2025 
 ******************************************
 %chk=C:\Users\Xc0rp\Desktop\quimica\NaCl-1_0.chk
 --------------
 #p b3lyp/3-21g
 --------------
 1/38=1/1;
 2/12=2,17=6,18=5,40=1/2;
 3/5=5,11=2,16=1,25=1,30=1,74=-5/1,2,3;
 4//1;
 5/5=2,38=5/2;
 6/7=2,8=2,9=2,10=2,28=1/1;
 99/5=1,9=1/99;
 Leave Link    1 at Mon Oct 20 18:33:58 2025, MaxMem=           0 cpu:         0.0
 (Enter C:\G09W\l101.exe)
 -------------------
 Title Card Required
 -------------------
 Symbolic Z-matrix:
 Charge = -1 Multiplicity = 2
 Na                    0.        0.        1.15 
 Cl                    0.        0.        0. 
 
 NAtoms=      2 NQM=        2 NQMF=       0 NMMI=      0 NMMIF=      0
                NMic=       0 NMicF=      0.
                    Isotopes and Nuclear Properties:
 (Nuclear quadrupole moments (NQMom) in fm**2, nuclear magnetic moments (NMagM)
  in nuclear magnetons)

  Atom         1           2
 IAtWgt=          23          35
 AtmWgt=  22.9897697  34.9688527
 NucSpn=           3           3
 AtZEff=   0.0000000   0.0000000
 NQMom=   10.4000000  -8.1650000
 NMagM=    2.2175200   0.8218740
 AtZNuc=  11.0000000  17.0000000
 Leave Link  101 at Mon Oct 20 18:33:58 2025, MaxMem=    33554432 cpu:         0.0
 (Enter C:\G09W\l202.exe)
                          Input orientation:                          
 ---------------------------------------------------------------------
 Center     Atomic      Atomic             Coordinates (Angstroms)
 Number     Number       Type             X           Y           Z
 ---------------------------------------------------------------------
      1         11           0        0.000000    0.000000    1.150000
      2         17           0        0.000000    0.000000    0.000000
 ---------------------------------------------------------------------
 Stoichiometry    ClNa(1-,2)
 Framework group  C*V[C*(NaCl)]
 Deg. of freedom     1
 Full point group                 C*V     NOp   4
 Largest Abelian subgroup         C2V     NOp   4
 Largest concise Abelian subgroup C1      NOp   1
                         Standard orientation:                         
 ---------------------------------------------------------------------
 Center     Atomic      Atomic             Coordinates (Angstroms)
 Number     Number       Type             X           Y           Z
 ---------------------------------------------------------------------
      1         11           0        0.000000    0.000000   -0.698214
      2         17           0        0.000000    0.000000    0.451786
 ---------------------------------------------------------------------
 Rotational constants (GHZ):      0.0000000     27.5501245     27.5501245
 Leave Link  202 at Mon Oct 20 18:33:58 2025, MaxMem=    33554432 cpu:         0.0
 (Enter C:\G09W\l301.exe)
 Standard basis: 3-21G (6D, 7F)
 Ernie: Thresh=  0.10000D-02 Tol=  0.10000D-05 Strict=F.
 There are    14 symmetry adapted cartesian basis functions of A1  symmetry.
 There are     0 symmetry adapted cartesian basis functions of A2  symmetry.
 There are     6 symmetry adapted cartesian basis functions of B1  symmetry.
 There are     6 symmetry adapted cartesian basis functions of B2  symmetry.
 There are    14 symmetry adapted basis functions of A1  symmetry.
 There are     0 symmetry adapted basis functions of A2  symmetry.
 There are     6 symmetry adapted basis functions of B1  symmetry.
 There are     6 symmetry adapted basis functions of B2  symmetry.
    26 basis functions,    54 primitive gaussians,    26 cartesian basis functions
    15 alpha electrons       14 beta electrons
       nuclear repulsion energy        86.0488156577 Hartrees.



 Warning!  Cl atom    2 may be hypervalent but has no d functions.



 IExCor=  402 DFT=T Ex+Corr=B3LYP ExCW=0 ScaHFX=  0.200000
 ScaDFX=  0.800000  0.720000  1.000000  0.810000 ScalE2=  1.000000  1.000000
 IRadAn=      0 IRanWt=     -1 IRanGd=            0 ICorTp=0 IEmpDi=  4
 NAtoms=    2 NActive=    2 NUniq=    2 SFac= 1.00D+00 NAtFMM=   60 NAOKFM=F Big=F
 Integral buffers will be    262144 words long.
 Raffenetti 2 integral format.
 Two-electron integral symmetry is turned on.
 Leave Link  301 at Mon Oct 20 18:33:58 2025, MaxMem=    33554432 cpu:         0.0
 (Enter C:\G09W\l302.exe)
 NPDir=0 NMtPBC=     1 NCelOv=     1 NCel=       1 NClECP=     1 NCelD=      1
         NCelK=      1 NCelE2=     1 NClLst=     1 CellRange=     0.0.
 One-electron integrals computed using PRISM.
 NBasis=    26 RedAO= T EigKep=  5.26D-02  NBF=    14     0     6     6
 NBsUse=    26 1.00D-06 EigRej= -1.00D+00 NBFU=    14     0     6     6
 Precomputing XC quadrature grid using
 IXCGrd= 4 IRadAn=           0 IRanWt=          -1 IRanGd=           0 AccXCQ= 0.00D+00.
 Generated NRdTot=       0 NPtTot=           0 NUsed=           0 NTot=          16
 NSgBfM=    26    26    26    26    26 MxSgAt=     2 MxSgA2=     2.
 Leave Link  302 at Mon Oct 20 18:33:58 2025, MaxMem=    33554432 cpu:         0.0
 (Enter C:\G09W\l303.exe)
 DipDrv:  MaxL=1.
 Leave Link  303 at Mon Oct 20 18:33:58 2025, MaxMem=    33554432 cpu:         0.0
 (Enter C:\G09W\l401.exe)
 ExpMin= 2.44D-02 ExpMax= 1.38D+03 ExpMxC= 1.38D+03 IAcc=3 IRadAn=         5 AccDes= 0.00D+00
 Harris functional with IExCor=  402 and IRadAn=       5 diagonalized for initial guess.
 HarFok:  IExCor=  402 AccDes= 0.00D+00 IRadAn=         5 IDoV= 1 UseB2=F ITyADJ=14
 ICtDFT=  3500011 ScaDFX=  1.000000  1.000000  1.000000  1.000000
 FoFCou: FMM=F IPFlag=           0 FMFlag=      100000 FMFlg1=           0
         NFxFlg=           0 DoJE=T BraDBF=F KetDBF=T FulRan=T
         wScrn=  0.000000 ICntrl=     500 IOpCl=  0 I1Cent=   200000004 NGrid=           0
         NMat0=    1 NMatS0=      1 NMatT0=    0 NMatD0=    1 NMtDS0=    0 NMtDT0=    0
 Petite list used in FoFCou.
 Harris En= -618.023216187840    
 JPrj=0 DoOrth=F DoCkMO=F.
 Initial guess orbital symmetries:
 Alpha Orbitals:
       Occupied  (SG) (SG) (SG) (SG) (PI) (PI) (SG) (SG) (PI) (PI)
                 (SG) (PI) (PI) (SG) (SG)
       Virtual   (PI) (PI) (SG) (SG) (PI) (PI) (SG) (PI) (PI) (SG)
                 (SG)
 Beta  Orbitals:
       Occupied  (SG) (SG) (SG) (SG) (PI) (PI) (SG) (SG) (PI) (PI)
                 (SG) (PI) (PI) (SG)
       Virtual   (SG) (PI) (PI) (SG) (SG) (PI) (PI) (SG) (PI) (PI)
                 (SG) (SG)
 The electronic state of the initial guess is 2-SG.
 Initial guess <Sx>= 0.0000 <Sy>= 0.0000 <Sz>= 0.5000 <S**2>= 0.7500 S= 0.5000
 Leave Link  401 at Mon Oct 20 18:33:58 2025, MaxMem=    33554432 cpu:         0.0
 (Enter C:\G09W\l502.exe)
 UHF open shell SCF:
 Using DIIS extrapolation, IDIIS=  1040.
 Integral symmetry usage will be decided dynamically.
 Keep R1 and R2 ints in memory in symmetry-blocked form, NReq=939475.
 IVT=       20802 IEndB=       20802 NGot=    33554432 MDV=    33495249
 LenX=    33495249 LenY=    33494132
 Requested convergence on RMS density matrix=1.00D-08 within 128 cycles.
 Requested convergence on MAX density matrix=1.00D-06.
 Requested convergence on             energy=1.00D-06.
 No special actions if energy rises.
 FoFCou: FMM=F IPFlag=           0 FMFlag=           0 FMFlg1=           0
         NFxFlg=           0 DoJE=F BraDBF=F KetDBF=F FulRan=T
         wScrn=  0.000000 ICntrl=     600 IOpCl=  0 I1Cent=           0 NGrid=           0
         NMat0=    1 NMatS0=    351 NMatT0=    0 NMatD0=    1 NMtDS0=    0 NMtDT0=    0
 Petite list used in FoFCou.

 Cycle   1  Pass 1  IDiag  1:
 E= -618.021252554254    
 DIIS: error= 2.31D-02 at cycle   1 NSaved=   1.
 NSaved= 1 IEnMin= 1 EnMin= -618.021252554254     IErMin= 1 ErrMin= 2.31D-02
 ErrMax= 2.31D-02  0.00D+00 EMaxC= 1.00D-01 BMatC= 5.21D-02 BMatP= 5.21D-02
 IDIUse=3 WtCom= 7.69D-01 WtEn= 2.31D-01
 Coeff-Com:  0.100D+01
 Coeff-En:   0.100D+01
 Coeff:      0.100D+01
 Gap=     0.051 Goal=   None    Shift=    0.000
 Gap=     0.116 Goal=   None    Shift=    0.000
 GapD=    0.051 DampG=0.500 DampE=0.500 DampFc=0.2500 IDamp=-1.
 Damping current iteration by 2.50D-01
 RMSDP=1.80D-02 MaxDP=1.85D-01              OVMax= 0.00D+00

 Cycle   2  Pass 1  IDiag  1:
 E= -618.025965747371     Delta-E=       -0.004713193117 Rises=F Damp=T
 DIIS: error= 1.67D-02 at cycle   2 NSaved=   2.
 NSaved= 2 IEnMin= 2 EnMin= -618.025965747371     IErMin= 2 ErrMin= 1.67D-02
 ErrMax= 1.67D-02  0.00D+00 EMaxC= 1.00D-01 BMatC= 2.58D-02 BMatP= 5.21D-02
 IDIUse=3 WtCom= 8.33D-01 WtEn= 1.67D-01
 Coeff-Com: -0.227D+01 0.327D+01
 Coeff-En:   0.000D+00 0.100D+01
 Coeff:     -0.189D+01 0.289D+01
 Gap=     0.047 Goal=   None    Shift=    0.000
 Gap=     0.111 Goal=   None    Shift=    0.000
 RMSDP=1.29D-02 MaxDP=1.47D-01 DE=-4.71D-03 OVMax= 0.00D+00

 Cycle   3  Pass 1  IDiag  1:
 E= -618.038180923728     Delta-E=       -0.012215176357 Rises=F Damp=F
 DIIS: error= 2.62D-03 at cycle   3 NSaved=   3.
 NSaved= 3 IEnMin= 3 EnMin= -618.038180923728     IErMin= 3 ErrMin= 2.62D-03
 ErrMax= 2.62D-03  0.00D+00 EMaxC= 1.00D-01 BMatC= 1.28D-03 BMatP= 2.58D-02
 IDIUse=3 WtCom= 9.74D-01 WtEn= 2.62D-02
 Coeff-Com: -0.116D+01 0.167D+01 0.495D+00
 Coeff-En:   0.000D+00 0.000D+00 0.100D+01
 Coeff:     -0.113D+01 0.162D+01 0.508D+00
 Gap=     0.045 Goal=   None    Shift=    0.000
 Gap=     0.108 Goal=   None    Shift=    0.000
 RMSDP=3.56D-03 MaxDP=5.75D-02 DE=-1.22D-02 OVMax= 0.00D+00

 Cycle   4  Pass 1  IDiag  1:
 E= -618.038684842294     Delta-E=       -0.000503918566 Rises=F Damp=F
 DIIS: error= 5.21D-04 at cycle   4 NSaved=   4.
 NSaved= 4 IEnMin= 4 EnMin= -618.038684842294     IErMin= 4 ErrMin= 5.21D-04
 ErrMax= 5.21D-04  0.00D+00 EMaxC= 1.00D-01 BMatC= 2.87D-05 BMatP= 1.28D-03
 IDIUse=3 WtCom= 9.95D-01 WtEn= 5.21D-03
 Coeff-Com:  0.760D-01-0.111D+00 0.972D-01 0.938D+00
 Coeff-En:   0.000D+00 0.000D+00 0.000D+00 0.100D+01
 Coeff:      0.756D-01-0.111D+00 0.966D-01 0.938D+00
 Gap=     0.045 Goal=   None    Shift=    0.000
 Gap=     0.109 Goal=   None    Shift=    0.000
 RMSDP=1.84D-03 MaxDP=3.61D-02 DE=-5.04D-04 OVMax= 0.00D+00

 Cycle   5  Pass 1  IDiag  1:
 E= -618.038745369697     Delta-E=       -0.000060527403 Rises=F Damp=F
 DIIS: error= 2.09D-04 at cycle   5 NSaved=   5.
 NSaved= 5 IEnMin= 5 EnMin= -618.038745369697     IErMin= 5 ErrMin= 2.09D-04
 ErrMax= 2.09D-04  0.00D+00 EMaxC= 1.00D-01 BMatC= 8.00D-06 BMatP= 2.87D-05
 IDIUse=3 WtCom= 9.98D-01 WtEn= 2.09D-03
 Coeff-Com:  0.670D-01-0.951D-01-0.132D+00-0.159D+00 0.132D+01
 Coeff-En:   0.000D+00 0.000D+00 0.000D+00 0.000D+00 0.100D+01
 Coeff:      0.669D-01-0.949D-01-0.132D+00-0.159D+00 0.132D+01
 Gap=     0.045 Goal=   None    Shift=    0.000
 Gap=     0.109 Goal=   None    Shift=    0.000
 RMSDP=1.26D-03 MaxDP=2.38D-02 DE=-6.05D-05 OVMax= 0.00D+00

 Cycle   6  Pass 1  IDiag  1:
 E= -618.038760239691     Delta-E=       -0.000014869994 Rises=F Damp=F
 DIIS: error= 7.19D-05 at cycle   6 NSaved=   6.
 NSaved= 6 IEnMin= 6 EnMin= -618.038760239691     IErMin= 6 ErrMin= 7.19D-05
 ErrMax= 7.19D-05  0.00D+00 EMaxC= 1.00D-01 BMatC= 7.70D-07 BMatP= 8.00D-06
 IDIUse=1 WtCom= 1.00D+00 WtEn= 0.00D+00
 Coeff-Com: -0.253D-02 0.286D-02-0.289D-01-0.364D-01 0.281D-02 0.106D+01
 Coeff:     -0.253D-02 0.286D-02-0.289D-01-0.364D-01 0.281D-02 0.106D+01
 Gap=     0.045 Goal=   None    Shift=    0.000
 Gap=     0.109 Goal=   None    Shift=    0.000
 RMSDP=3.51D-04 MaxDP=6.49D-03 DE=-1.49D-05 OVMax= 0.00D+00

 Cycle   7  Pass 1  IDiag  1:
 E= -618.038761274709     Delta-E=       -0.000001035018 Rises=F Damp=F
 DIIS: error= 1.25D-05 at cycle   7 NSaved=   7.
 NSaved= 7 IEnMin= 7 EnMin= -618.038761274709     IErMin= 7 ErrMin= 1.25D-05
 ErrMax= 1.25D-05  0.00D+00 EMaxC= 1.00D-01 BMatC= 1.06D-08 BMatP= 7.70D-07
 IDIUse=1 WtCom= 1.00D+00 WtEn= 0.00D+00
 Coeff-Com: -0.340D-02 0.492D-02 0.935D-02 0.458D-02-0.869D-01 0.135D-02
 Coeff-Com:  0.107D+01
 Coeff:     -0.340D-02 0.492D-02 0.935D-02 0.458D-02-0.869D-01 0.135D-02
 Coeff:      0.107D+01
 Gap=     0.045 Goal=   None    Shift=    0.000
 Gap=     0.109 Goal=   None    Shift=    0.000
 RMSDP=7.24D-05 MaxDP=1.31D-03 DE=-1.04D-06 OVMax= 0.00D+00

 Cycle   8  Pass 1  IDiag  1:
 E= -618.038761312914     Delta-E=       -0.000000038205 Rises=F Damp=F
 DIIS: error= 2.87D-06 at cycle   8 NSaved=   8.
 NSaved= 8 IEnMin= 8 EnMin= -618.038761312914     IErMin= 8 ErrMin= 2.87D-06
 ErrMax= 2.87D-06  0.00D+00 EMaxC= 1.00D-01 BMatC= 6.00D-10 BMatP= 1.06D-08
 IDIUse=1 WtCom= 1.00D+00 WtEn= 0.00D+00
 Coeff-Com:  0.922D-03-0.131D-02-0.158D-02 0.805D-03 0.238D-01-0.569D-01
 Coeff-Com: -0.246D+00 0.128D+01
 Coeff:      0.922D-03-0.131D-02-0.158D-02 0.805D-03 0.238D-01-0.569D-01
 Coeff:     -0.246D+00 0.128D+01
 Gap=     0.045 Goal=   None    Shift=    0.000
 Gap=     0.109 Goal=   None    Shift=    0.000
 RMSDP=9.47D-06 MaxDP=1.40D-04 DE=-3.82D-08 OVMax= 0.00D+00

 Cycle   9  Pass 1  IDiag  1:
 E= -618.038761313686     Delta-E=       -0.000000000772 Rises=F Damp=F
 DIIS: error= 3.31D-07 at cycle   9 NSaved=   9.
 NSaved= 9 IEnMin= 9 EnMin= -618.038761313686     IErMin= 9 ErrMin= 3.31D-07
 ErrMax= 3.31D-07  0.00D+00 EMaxC= 1.00D-01 BMatC= 8.67D-12 BMatP= 6.00D-10
 IDIUse=1 WtCom= 1.00D+00 WtEn= 0.00D+00
 Coeff-Com: -0.164D-03 0.232D-03 0.177D-03-0.433D-03-0.230D-02 0.952D-02
 Coeff-Com:  0.447D-01-0.333D+00 0.128D+01
 Coeff:     -0.164D-03 0.232D-03 0.177D-03-0.433D-03-0.230D-02 0.952D-02
 Coeff:      0.447D-01-0.333D+00 0.128D+01
 Gap=     0.045 Goal=   None    Shift=    0.000
 Gap=     0.109 Goal=   None    Shift=    0.000
 RMSDP=2.16D-06 MaxDP=4.07D-05 DE=-7.72D-10 OVMax= 0.00D+00

 Cycle  10  Pass 1  IDiag  1:
 E= -618.038761313716     Delta-E=       -0.000000000030 Rises=F Damp=F
 DIIS: error= 6.03D-08 at cycle  10 NSaved=  10.
 NSaved=10 IEnMin=10 EnMin= -618.038761313716     IErMin=10 ErrMin= 6.03D-08
 ErrMax= 6.03D-08  0.00D+00 EMaxC= 1.00D-01 BMatC= 3.49D-13 BMatP= 8.67D-12
 IDIUse=1 WtCom= 1.00D+00 WtEn= 0.00D+00
 Coeff-Com:  0.243D-04-0.339D-04-0.143D-04 0.834D-04 0.128D-03-0.190D-02
 Coeff-Com: -0.631D-02 0.616D-01-0.400D+00 0.135D+01
 Coeff:      0.243D-04-0.339D-04-0.143D-04 0.834D-04 0.128D-03-0.190D-02
 Coeff:     -0.631D-02 0.616D-01-0.400D+00 0.135D+01
 Gap=     0.045 Goal=   None    Shift=    0.000
 Gap=     0.109 Goal=   None    Shift=    0.000
 RMSDP=3.54D-07 MaxDP=4.51D-06 DE=-3.02D-11 OVMax= 0.00D+00

 Cycle  11  Pass 1  IDiag  1:
 E= -618.038761313718     Delta-E=       -0.000000000002 Rises=F Damp=F
 DIIS: error= 1.09D-08 at cycle  11 NSaved=  11.
 NSaved=11 IEnMin=11 EnMin= -618.038761313718     IErMin=11 ErrMin= 1.09D-08
 ErrMax= 1.09D-08  0.00D+00 EMaxC= 1.00D-01 BMatC= 8.74D-15 BMatP= 3.49D-13
 IDIUse=1 WtCom= 1.00D+00 WtEn= 0.00D+00
 Coeff-Com:  0.450D-06-0.618D-06-0.307D-06 0.367D-05 0.604D-04-0.504D-04
 Coeff-Com:  0.194D-03-0.239D-02 0.338D-01-0.252D+00 0.122D+01
 Coeff:      0.450D-06-0.618D-06-0.307D-06 0.367D-05 0.604D-04-0.504D-04
 Coeff:      0.194D-03-0.239D-02 0.338D-01-0.252D+00 0.122D+01
 Gap=     0.045 Goal=   None    Shift=    0.000
 Gap=     0.109 Goal=   None    Shift=    0.000
 RMSDP=6.73D-08 MaxDP=1.29D-06 DE=-1.59D-12 OVMax= 0.00D+00

 Cycle  12  Pass 1  IDiag  1:
 E= -618.038761313715     Delta-E=        0.000000000002 Rises=F Damp=F
 DIIS: error= 1.11D-09 at cycle  12 NSaved=  12.
 NSaved=12 IEnMin=11 EnMin= -618.038761313718     IErMin=12 ErrMin= 1.11D-09
 ErrMax= 1.11D-09  0.00D+00 EMaxC= 1.00D-01 BMatC= 1.40D-16 BMatP= 8.74D-15
 IDIUse=1 WtCom= 1.00D+00 WtEn= 0.00D+00
 Coeff-Com: -0.410D-06 0.560D-06-0.422D-07-0.277D-05-0.882D-05 0.458D-04
 Coeff-Com:  0.158D-04-0.579D-03 0.194D-02 0.131D-01-0.152D+00 0.114D+01
 Coeff:     -0.410D-06 0.560D-06-0.422D-07-0.277D-05-0.882D-05 0.458D-04
 Coeff:      0.158D-04-0.579D-03 0.194D-02 0.131D-01-0.152D+00 0.114D+01
 Gap=     0.045 Goal=   None    Shift=    0.000
 Gap=     0.109 Goal=   None    Shift=    0.000
 RMSDP=3.48D-09 MaxDP=6.04D-08 DE= 2.05D-12 OVMax= 0.00D+00

 SCF Done:  E(UB3LYP) =  -618.038761314     A.U. after   12 cycles
            NFock= 12  Conv=0.35D-08     -V/T= 1.9965
 <Sx>= 0.0000 <Sy>= 0.0000 <Sz>= 0.5000 <S**2>= 0.7518 S= 0.5009
 <L.S>= 0.000000000000E+00
 KE= 6.202397912967D+02 PE=-1.649313973009D+03 EE= 3.249866047412D+02
 Annihilation of the first spin contaminant:
 S**2 before annihilation     0.7518,   after     0.7500
 Leave Link  502 at Mon Oct 20 18:33:59 2025, MaxMem=    33554432 cpu:         1.0
 (Enter C:\G09W\l601.exe)
 Copying SCF densities to generalized density rwf, IOpCl= 1 IROHF=0.

 **********************************************************************

            Population analysis using the SCF density.

 **********************************************************************

 Orbital symmetries:
 Alpha Orbitals:
       Occupied  (SG) (SG) (SG) (SG) (PI) (PI) (SG) (SG) (PI) (PI)
                 (SG) (PI) (PI) (SG) (SG)
       Virtual   (PI) (PI) (SG) (SG) (PI) (PI) (SG) (PI) (PI) (SG)
                 (SG)
 Beta  Orbitals:
       Occupied  (SG) (SG) (SG) (SG) (PI) (PI) (SG) (SG) (PI) (PI)
                 (SG) (PI) (PI) (SG)
       Virtual   (SG) (PI) (PI) (SG) (PI) (PI) (SG) (SG) (PI) (PI)
                 (SG) (SG)
 The electronic state is 2-SG.
 Alpha  occ. eigenvalues -- -100.76369 -38.30089  -9.36813  -7.14796  -7.11189
 Alpha  occ. eigenvalues --   -7.11189  -2.47045  -1.39928  -1.26311  -1.26311
 Alpha  occ. eigenvalues --   -0.58504  -0.23022  -0.23022  -0.01932   0.06304
 Alpha virt. eigenvalues --    0.10824   0.10824   0.12182   0.22124   0.22617
 Alpha virt. eigenvalues --    0.22617   0.31391   0.76801   0.76801   0.78696
 Alpha virt. eigenvalues --    0.93760
  Beta  occ. eigenvalues -- -100.76210 -38.29824  -9.36625  -7.14437  -7.11073
  Beta  occ. eigenvalues --   -7.11073  -2.46486  -1.39317  -1.26113  -1.26113
  Beta  occ. eigenvalues --   -0.57683  -0.22585  -0.22585  -0.00773
  Beta virt. eigenvalues --    0.10148   0.11987   0.11987   0.12895   0.22878
  Beta virt. eigenvalues --    0.22878   0.22917   0.32251   0.77262   0.77262
  Beta virt. eigenvalues --    0.79654   0.94066
          Condensed to atoms (all electrons):
               1          2
     1  Na  12.129609  -0.478219
     2  Cl  -0.478219  17.826829
          Atomic-Atomic Spin Densities.
               1          2
     1  Na   0.949067  -0.133940
     2  Cl  -0.133940   0.318813
 Mulliken charges and spin densities:
               1          2
     1  Na  -0.651390   0.815127
     2  Cl  -0.348610   0.184873
 Sum of Mulliken charges =  -1.00000   1.00000
 Mulliken charges and spin densities with hydrogens summed into heavy atoms:
               1          2
     1  Na  -0.651390   0.815127
     2  Cl  -0.348610   0.184873
 Electronic spatial extent (au):  <R**2>=            127.8962
 Charge=             -1.0000 electrons
 Dipole moment (field-independent basis, Debye):
    X=              0.0000    Y=              0.0000    Z=              2.9908  Tot=              2.9908
 Quadrupole moment (field-independent basis, Debye-Ang):
   XX=            -40.0722   YY=            -40.0722   ZZ=            -49.4565
   XY=              0.0000   XZ=              0.0000   YZ=              0.0000
 Traceless Quadrupole moment (field-independent basis, Debye-Ang):
   XX=              3.1281   YY=              3.1281   ZZ=             -6.2562
   XY=              0.0000   XZ=              0.0000   YZ=              0.0000
 Octapole moment (field-independent basis, Debye-Ang**2):
  XXX=              0.0000  YYY=              0.0000  ZZZ=             56.8196  XYY=              0.0000
  XXY=              0.0000  XXZ=             15.8646  XZZ=              0.0000  YZZ=              0.0000
  YYZ=             15.8646  XYZ=              0.0000
 Hexadecapole moment (field-independent basis, Debye-Ang**3):
 XXXX=           -227.1010 YYYY=           -227.1010 ZZZZ=           -418.2557 XXXY=              0.0000
 XXXZ=              0.0000 YYYX=              0.0000 YYYZ=              0.0000 ZZZX=              0.0000
 ZZZY=              0.0000 XXYY=            -75.7003 XXZZ=           -105.2629 YYZZ=           -105.2629
 XXYZ=              0.0000 YYXZ=              0.0000 ZZXY=              0.0000
 N-N= 8.604881565768D+01 E-N=-1.649313973184D+03  KE= 6.202397912967D+02
 Symmetry A1   KE= 5.051612252281D+02
 Symmetry A2   KE= 0.000000000000D+00
 Symmetry B1   KE= 5.753928303428D+01
 Symmetry B2   KE= 5.753928303428D+01
                          Isotropic Fermi Contact Couplings
        Atom                 a.u.       MegaHertz       Gauss      10(-4) cm-1
     1  Na(23)             0.23482     277.79920      99.12566      92.66384
     2  Cl(35)             0.33686     147.69975      52.70294      49.26733
 --------------------------------------------------------
       Center         ----  Spin Dipole Couplings  ----
                      3XX-RR        3YY-RR        3ZZ-RR
 --------------------------------------------------------
     1   Atom       -0.296315     -0.296315      0.592630
     2   Atom       -0.415493     -0.415493      0.830987
 --------------------------------------------------------
                        XY            XZ            YZ
 --------------------------------------------------------
     1   Atom        0.000000      0.000000      0.000000
     2   Atom        0.000000      0.000000      0.000000
 --------------------------------------------------------


 ---------------------------------------------------------------------------------
              Anisotropic Spin Dipole Couplings in Principal Axis System
 ---------------------------------------------------------------------------------

       Atom             a.u.   MegaHertz   Gauss  10(-4) cm-1        Axes

              Baa    -0.2963   -41.844   -14.931   -13.958  0.0000  1.0000  0.0000
     1 Na(23) Bbb    -0.2963   -41.844   -14.931   -13.958  1.0000  0.0000  0.0000
              Bcc     0.5926    83.687    29.862    27.915  0.0000  0.0000  1.0000
 
              Baa    -0.4155   -21.746    -7.759    -7.254  1.0000  0.0000  0.0000
     2 Cl(35) Bbb    -0.4155   -21.746    -7.759    -7.254  0.0000  1.0000  0.0000
              Bcc     0.8310    43.492    15.519    14.507  0.0000  0.0000  1.0000
 

 ---------------------------------------------------------------------------------

 No NMR shielding tensors so no spin-rotation constants.
 Leave Link  601 at Mon Oct 20 18:33:59 2025, MaxMem=    33554432 cpu:         0.0
 (Enter C:\G09W\l9999.exe)
 1|1|UNPC-ALEXHPENVY|SP|UB3LYP|3-21G|Cl1Na1(1-,2)|XC0RP|20-Oct-2025|0||
 #p b3lyp/3-21g||Title Card Required||-1,2|Na,0,0.,0.,1.15|Cl,0,0.,0.,0
 .||Version=IA32W-G09RevD.01|State=2-SG|HF=-618.0387613|S2=0.751795|S2-
 1=0.|S2A=0.75|RMSD=3.476e-009|Dipole=0.,0.,-1.1766556|Quadrupole=2.325
 6712,2.3256712,-4.6513424,0.,0.,0.|PG=C*V [C*(Na1Cl1)]||@


 A MAN SHOULD NEVER BE ASHAMED TO OWN HE HAS BEEN IN THE WRONG
 WHICH IS BUT SAYING IN OTHER WORDS,
 THAT HE IS WISER TODAY THAN HE WAS YESTERDAY.

                          -- JONATHAN SWIFT
 Job cpu time:       0 days  0 hours  0 minutes  1.0 seconds.
 File lengths (MBytes):  RWF=      5 Int=      0 D2E=      0 Chk=      1 Scr=      1
 Normal termination of Gaussian 09 at Mon Oct 20 18:33:59 2025.
