 Entering Link 1 = C:\G09W\l1.exe PID=     30136.
  
 Copyright (c) 1988,1990,1992,1993,1995,1998,2003,2009,2013,
            Gaussian, Inc.  All Rights Reserved.
  
 This is part of the Gaussian(R) 09 program.  It is based on
 the Gaussian(R) 03 system (copyright 2003, Gaussian, Inc.),
 the Gaussian(R) 98 system (copyright 1998, Gaussian, Inc.),
 the Gaussian(R) 94 system (copyright 1995, Gaussian, Inc.),
 the Gaussian 92(TM) system (copyright 1992, Gaussian, Inc.),
 the Gaussian 90(TM) system (copyright 1990, Gaussian, Inc.),
 the Gaussian 88(TM) system (copyright 1988, Gaussian, Inc.),
 the Gaussian 86(TM) system (copyright 1986, Carnegie Mellon
 University), and the Gaussian 82(TM) system (copyright 1983,
 Carnegie Mellon University). Gaussian is a federally registered
 trademark of Gaussian, Inc.
  
 This software contains proprietary and confidential information,
 including trade secrets, belonging to Gaussian, Inc.
  
 This software is provided under written license and may be
 used, copied, transmitted, or stored only in accord with that
 written license.
  
 The following legend is applicable only to US Government
 contracts under FAR:
  
                    RESTRICTED RIGHTS LEGEND
  
 Use, reproduction and disclosure by the US Government is
 subject to restrictions as set forth in subparagraphs (a)
 and (c) of the Commercial Computer Software - Restricted
 Rights clause in FAR 52.227-19.
  
 Gaussian, Inc.
 340 Quinnipiac St., Bldg. 40, Wallingford CT 06492
  
  
 ---------------------------------------------------------------
 Warning -- This program may not be used in any manner that
 competes with the business of Gaussian, Inc. or will provide
 assistance to any competitor of Gaussian, Inc.  The licensee
 of this program is prohibited from giving any competitor of
 Gaussian, Inc. access to this program.  By using this program,
 the user acknowledges that Gaussian, Inc. is engaged in the
 business of creating and licensing software in the field of
 computational chemistry and represents and warrants to the
 licensee that it is not a competitor of Gaussian, Inc. and that
 it will not use this program in any manner prohibited above.
 ---------------------------------------------------------------
  

 Cite this work as:
 Gaussian 09, Revision D.01,
 M. J. Frisch, G. W. Trucks, H. B. Schlegel, G. E. Scuseria, 
 M. A. Robb, J. R. Cheeseman, G. Scalmani, V. Barone, B. Mennucci, 
 G. A. Petersson, H. Nakatsuji, M. Caricato, X. Li, H. P. Hratchian, 
 A. F. Izmaylov, J. Bloino, G. Zheng, J. L. Sonnenberg, M. Hada, 
 M. Ehara, K. Toyota, R. Fukuda, J. Hasegawa, M. Ishida, T. Nakajima, 
 Y. Honda, O. Kitao, H. Nakai, T. Vreven, J. A. Montgomery, Jr., 
 J. E. Peralta, F. Ogliaro, M. Bearpark, J. J. Heyd, E. Brothers, 
 K. N. Kudin, V. N. Staroverov, T. Keith, R. Kobayashi, J. Normand, 
 K. Raghavachari, A. Rendell, J. C. Burant, S. S. Iyengar, J. Tomasi, 
 M. Cossi, N. Rega, J. M. Millam, M. Klene, J. E. Knox, J. B. Cross, 
 V. Bakken, C. Adamo, J. Jaramillo, R. Gomperts, R. E. Stratmann, 
 O. Yazyev, A. J. Austin, R. Cammi, C. Pomelli, J. W. Ochterski, 
 R. L. Martin, K. Morokuma, V. G. Zakrzewski, G. A. Voth, 
 P. Salvador, J. J. Dannenberg, S. Dapprich, A. D. Daniels, 
 O. Farkas, J. B. Foresman, J. V. Ortiz, J. Cioslowski, 
 and D. J. Fox, Gaussian, Inc., Wallingford CT, 2013.
 
 ******************************************
 Gaussian 09:  IA32W-G09RevD.01 24-Apr-2013
                20-Oct-2025 
 ******************************************
 %chk=C:\Users\Xc0rp\Desktop\quimica\NaCl-1_0.chk
 --------------
 #p b3lyp/3-21g
 --------------
 1/38=1/1;
 2/12=2,17=6,18=5,40=1/2;
 3/5=5,11=2,16=1,25=1,30=1,74=-5/1,2,3;
 4//1;
 5/5=2,38=5/2;
 6/7=2,8=2,9=2,10=2,28=1/1;
 99/5=1,9=1/99;
 Leave Link    1 at Mon Oct 20 18:33:59 2025, MaxMem=           0 cpu:         0.0
 (Enter C:\G09W\l101.exe)
 -------------------
 Title Card Required
 -------------------
 Symbolic Z-matrix:
 Charge = -1 Multiplicity = 2
 Na                    0.        0.        1.3 
 Cl                    0.        0.        0. 
 
 NAtoms=      2 NQM=        2 NQMF=       0 NMMI=      0 NMMIF=      0
                NMic=       0 NMicF=      0.
                    Isotopes and Nuclear Properties:
 (Nuclear quadrupole moments (NQMom) in fm**2, nuclear magnetic moments (NMagM)
  in nuclear magnetons)

  Atom         1           2
 IAtWgt=          23          35
 AtmWgt=  22.9897697  34.9688527
 NucSpn=           3           3
 AtZEff=   0.0000000   0.0000000
 NQMom=   10.4000000  -8.1650000
 NMagM=    2.2175200   0.8218740
 AtZNuc=  11.0000000  17.0000000
 Leave Link  101 at Mon Oct 20 18:33:59 2025, MaxMem=    33554432 cpu:         0.0
 (Enter C:\G09W\l202.exe)
                          Input orientation:                          
 ---------------------------------------------------------------------
 Center     Atomic      Atomic             Coordinates (Angstroms)
 Number     Number       Type             X           Y           Z
 ---------------------------------------------------------------------
      1         11           0        0.000000    0.000000    1.300000
      2         17           0        0.000000    0.000000    0.000000
 ---------------------------------------------------------------------
 Stoichiometry    ClNa(1-,2)
 Framework group  C*V[C*(NaCl)]
 Deg. of freedom     1
 Full point group                 C*V     NOp   4
 Largest Abelian subgroup         C2V     NOp   4
 Largest concise Abelian subgroup C1      NOp   1
                         Standard orientation:                         
 ---------------------------------------------------------------------
 Center     Atomic      Atomic             Coordinates (Angstroms)
 Number     Number       Type             X           Y           Z
 ---------------------------------------------------------------------
      1         11           0        0.000000    0.000000   -0.789286
      2         17           0        0.000000    0.000000    0.510714
 ---------------------------------------------------------------------
 Rotational constants (GHZ):      0.0000000     21.5591950     21.5591950
 Leave Link  202 at Mon Oct 20 18:34:00 2025, MaxMem=    33554432 cpu:         0.0
 (Enter C:\G09W\l301.exe)
 Standard basis: 3-21G (6D, 7F)
 Ernie: Thresh=  0.10000D-02 Tol=  0.10000D-05 Strict=F.
 There are    14 symmetry adapted cartesian basis functions of A1  symmetry.
 There are     0 symmetry adapted cartesian basis functions of A2  symmetry.
 There are     6 symmetry adapted cartesian basis functions of B1  symmetry.
 There are     6 symmetry adapted cartesian basis functions of B2  symmetry.
 There are    14 symmetry adapted basis functions of A1  symmetry.
 There are     0 symmetry adapted basis functions of A2  symmetry.
 There are     6 symmetry adapted basis functions of B1  symmetry.
 There are     6 symmetry adapted basis functions of B2  symmetry.
    26 basis functions,    54 primitive gaussians,    26 cartesian basis functions
    15 alpha electrons       14 beta electrons
       nuclear repulsion energy        76.1201061587 Hartrees.



 Warning!  Cl atom    2 may be hypervalent but has no d functions.



 IExCor=  402 DFT=T Ex+Corr=B3LYP ExCW=0 ScaHFX=  0.200000
 ScaDFX=  0.800000  0.720000  1.000000  0.810000 ScalE2=  1.000000  1.000000
 IRadAn=      0 IRanWt=     -1 IRanGd=            0 ICorTp=0 IEmpDi=  4
 NAtoms=    2 NActive=    2 NUniq=    2 SFac= 1.00D+00 NAtFMM=   60 NAOKFM=F Big=F
 Integral buffers will be    262144 words long.
 Raffenetti 2 integral format.
 Two-electron integral symmetry is turned on.
 Leave Link  301 at Mon Oct 20 18:34:00 2025, MaxMem=    33554432 cpu:         0.0
 (Enter C:\G09W\l302.exe)
 NPDir=0 NMtPBC=     1 NCelOv=     1 NCel=       1 NClECP=     1 NCelD=      1
         NCelK=      1 NCelE2=     1 NClLst=     1 CellRange=     0.0.
 One-electron integrals computed using PRISM.
 NBasis=    26 RedAO= T EigKep=  5.51D-02  NBF=    14     0     6     6
 NBsUse=    26 1.00D-06 EigRej= -1.00D+00 NBFU=    14     0     6     6
 Precomputing XC quadrature grid using
 IXCGrd= 4 IRadAn=           0 IRanWt=          -1 IRanGd=           0 AccXCQ= 0.00D+00.
 Generated NRdTot=       0 NPtTot=           0 NUsed=           0 NTot=          16
 NSgBfM=    26    26    26    26    26 MxSgAt=     2 MxSgA2=     2.
 Leave Link  302 at Mon Oct 20 18:34:00 2025, MaxMem=    33554432 cpu:         0.0
 (Enter C:\G09W\l303.exe)
 DipDrv:  MaxL=1.
 Leave Link  303 at Mon Oct 20 18:34:00 2025, MaxMem=    33554432 cpu:         0.0
 (Enter C:\G09W\l401.exe)
 ExpMin= 2.44D-02 ExpMax= 1.38D+03 ExpMxC= 1.38D+03 IAcc=3 IRadAn=         5 AccDes= 0.00D+00
 Harris functional with IExCor=  402 and IRadAn=       5 diagonalized for initial guess.
 HarFok:  IExCor=  402 AccDes= 0.00D+00 IRadAn=         5 IDoV= 1 UseB2=F ITyADJ=14
 ICtDFT=  3500011 ScaDFX=  1.000000  1.000000  1.000000  1.000000
 FoFCou: FMM=F IPFlag=           0 FMFlag=      100000 FMFlg1=           0
         NFxFlg=           0 DoJE=T BraDBF=F KetDBF=T FulRan=T
         wScrn=  0.000000 ICntrl=     500 IOpCl=  0 I1Cent=   200000004 NGrid=           0
         NMat0=    1 NMatS0=      1 NMatT0=    0 NMatD0=    1 NMtDS0=    0 NMtDT0=    0
 Petite list used in FoFCou.
 Harris En= -618.545642876915    
 JPrj=0 DoOrth=F DoCkMO=F.
 Initial guess orbital symmetries:
 Alpha Orbitals:
       Occupied  (SG) (SG) (SG) (SG) (PI) (PI) (SG) (SG) (PI) (PI)
                 (SG) (PI) (PI) (SG) (SG)
       Virtual   (PI) (PI) (SG) (SG) (PI) (PI) (SG) (SG) (PI) (PI)
                 (SG)
 Beta  Orbitals:
       Occupied  (SG) (SG) (SG) (SG) (PI) (PI) (SG) (SG) (PI) (PI)
                 (SG) (PI) (PI) (SG)
       Virtual   (SG) (PI) (PI) (SG) (SG) (PI) (PI) (SG) (SG) (PI)
                 (PI) (SG)
 The electronic state of the initial guess is 2-SG.
 Initial guess <Sx>= 0.0000 <Sy>= 0.0000 <Sz>= 0.5000 <S**2>= 0.7500 S= 0.5000
 Leave Link  401 at Mon Oct 20 18:34:00 2025, MaxMem=    33554432 cpu:         0.0
 (Enter C:\G09W\l502.exe)
 UHF open shell SCF:
 Using DIIS extrapolation, IDIIS=  1040.
 Integral symmetry usage will be decided dynamically.
 Keep R1 and R2 ints in memory in symmetry-blocked form, NReq=939475.
 IVT=       20802 IEndB=       20802 NGot=    33554432 MDV=    33495249
 LenX=    33495249 LenY=    33494132
 Requested convergence on RMS density matrix=1.00D-08 within 128 cycles.
 Requested convergence on MAX density matrix=1.00D-06.
 Requested convergence on             energy=1.00D-06.
 No special actions if energy rises.
 FoFCou: FMM=F IPFlag=           0 FMFlag=           0 FMFlg1=           0
         NFxFlg=           0 DoJE=F BraDBF=F KetDBF=F FulRan=T
         wScrn=  0.000000 ICntrl=     600 IOpCl=  0 I1Cent=           0 NGrid=           0
         NMat0=    1 NMatS0=    351 NMatT0=    0 NMatD0=    1 NMtDS0=    0 NMtDT0=    0
 Petite list used in FoFCou.

 Cycle   1  Pass 1  IDiag  1:
 E= -618.541336425625    
 DIIS: error= 2.05D-02 at cycle   1 NSaved=   1.
 NSaved= 1 IEnMin= 1 EnMin= -618.541336425625     IErMin= 1 ErrMin= 2.05D-02
 ErrMax= 2.05D-02  0.00D+00 EMaxC= 1.00D-01 BMatC= 7.60D-02 BMatP= 7.60D-02
 IDIUse=3 WtCom= 7.95D-01 WtEn= 2.05D-01
 Coeff-Com:  0.100D+01
 Coeff-En:   0.100D+01
 Coeff:      0.100D+01
 Gap=     0.053 Goal=   None    Shift=    0.000
 Gap=     0.063 Goal=   None    Shift=    0.000
 GapD=    0.053 DampG=0.500 DampE=0.500 DampFc=0.2500 IDamp=-1.
 Damping current iteration by 2.50D-01
 RMSDP=4.81D-02 MaxDP=8.09D-01              OVMax= 0.00D+00

 Cycle   2  Pass 1  IDiag  1:
 E= -618.551482297735     Delta-E=       -0.010145872109 Rises=F Damp=T
 DIIS: error= 9.65D-03 at cycle   2 NSaved=   2.
 NSaved= 2 IEnMin= 2 EnMin= -618.551482297735     IErMin= 2 ErrMin= 9.65D-03
 ErrMax= 9.65D-03  0.00D+00 EMaxC= 1.00D-01 BMatC= 1.63D-02 BMatP= 7.60D-02
 IDIUse=3 WtCom= 9.04D-01 WtEn= 9.65D-02
 Coeff-Com: -0.484D+00 0.148D+01
 Coeff-En:   0.000D+00 0.100D+01
 Coeff:     -0.437D+00 0.144D+01
 Gap=     0.077 Goal=   None    Shift=    0.000
 Gap=     0.092 Goal=   None    Shift=    0.000
 RMSDP=1.16D-02 MaxDP=2.02D-01 DE=-1.01D-02 OVMax= 0.00D+00

 Cycle   3  Pass 1  IDiag  1:
 E= -618.573911536437     Delta-E=       -0.022429238703 Rises=F Damp=F
 DIIS: error= 2.36D-03 at cycle   3 NSaved=   3.
 NSaved= 3 IEnMin= 3 EnMin= -618.573911536437     IErMin= 3 ErrMin= 2.36D-03
 ErrMax= 2.36D-03  0.00D+00 EMaxC= 1.00D-01 BMatC= 1.03D-03 BMatP= 1.63D-02
 IDIUse=3 WtCom= 9.76D-01 WtEn= 2.36D-02
 Coeff-Com: -0.197D+00 0.304D+00 0.893D+00
 Coeff-En:   0.000D+00 0.000D+00 0.100D+01
 Coeff:     -0.192D+00 0.297D+00 0.895D+00
 Gap=     0.057 Goal=   None    Shift=    0.000
 Gap=     0.112 Goal=   None    Shift=    0.000
 RMSDP=4.45D-03 MaxDP=6.99D-02 DE=-2.24D-02 OVMax= 0.00D+00

 Cycle   4  Pass 1  IDiag  1:
 E= -618.574606383495     Delta-E=       -0.000694847058 Rises=F Damp=F
 DIIS: error= 6.39D-04 at cycle   4 NSaved=   4.
 NSaved= 4 IEnMin= 4 EnMin= -618.574606383495     IErMin= 4 ErrMin= 6.39D-04
 ErrMax= 6.39D-04  0.00D+00 EMaxC= 1.00D-01 BMatC= 4.64D-05 BMatP= 1.03D-03
 IDIUse=3 WtCom= 9.94D-01 WtEn= 6.39D-03
 Coeff-Com: -0.145D-01 0.122D-02-0.108D+00 0.112D+01
 Coeff-En:   0.000D+00 0.000D+00 0.000D+00 0.100D+01
 Coeff:     -0.144D-01 0.121D-02-0.108D+00 0.112D+01
 Gap=     0.058 Goal=   None    Shift=    0.000
 Gap=     0.114 Goal=   None    Shift=    0.000
 RMSDP=1.90D-03 MaxDP=3.73D-02 DE=-6.95D-04 OVMax= 0.00D+00

 Cycle   5  Pass 1  IDiag  1:
 E= -618.574686339429     Delta-E=       -0.000079955934 Rises=F Damp=F
 DIIS: error= 2.55D-04 at cycle   5 NSaved=   5.
 NSaved= 5 IEnMin= 5 EnMin= -618.574686339429     IErMin= 5 ErrMin= 2.55D-04
 ErrMax= 2.55D-04  0.00D+00 EMaxC= 1.00D-01 BMatC= 9.22D-06 BMatP= 4.64D-05
 IDIUse=3 WtCom= 9.97D-01 WtEn= 2.55D-03
 Coeff-Com: -0.261D-02 0.270D-02-0.634D-01-0.219D+00 0.128D+01
 Coeff-En:   0.000D+00 0.000D+00 0.000D+00 0.000D+00 0.100D+01
 Coeff:     -0.261D-02 0.270D-02-0.633D-01-0.219D+00 0.128D+01
 Gap=     0.058 Goal=   None    Shift=    0.000
 Gap=     0.114 Goal=   None    Shift=    0.000
 RMSDP=8.72D-04 MaxDP=1.66D-02 DE=-8.00D-05 OVMax= 0.00D+00

 Cycle   6  Pass 1  IDiag  1:
 E= -618.574696940942     Delta-E=       -0.000010601513 Rises=F Damp=F
 DIIS: error= 3.05D-05 at cycle   6 NSaved=   6.
 NSaved= 6 IEnMin= 6 EnMin= -618.574696940942     IErMin= 6 ErrMin= 3.05D-05
 ErrMax= 3.05D-05  0.00D+00 EMaxC= 1.00D-01 BMatC= 1.13D-07 BMatP= 9.22D-06
 IDIUse=1 WtCom= 1.00D+00 WtEn= 0.00D+00
 Coeff-Com: -0.161D-02 0.221D-02 0.856D-02 0.265D-01-0.183D+00 0.115D+01
 Coeff:     -0.161D-02 0.221D-02 0.856D-02 0.265D-01-0.183D+00 0.115D+01
 Gap=     0.058 Goal=   None    Shift=    0.000
 Gap=     0.114 Goal=   None    Shift=    0.000
 RMSDP=6.43D-05 MaxDP=9.35D-04 DE=-1.06D-05 OVMax= 0.00D+00

 Cycle   7  Pass 1  IDiag  1:
 E= -618.574697045083     Delta-E=       -0.000000104141 Rises=F Damp=F
 DIIS: error= 5.15D-06 at cycle   7 NSaved=   7.
 NSaved= 7 IEnMin= 7 EnMin= -618.574697045083     IErMin= 7 ErrMin= 5.15D-06
 ErrMax= 5.15D-06  0.00D+00 EMaxC= 1.00D-01 BMatC= 1.81D-09 BMatP= 1.13D-07
 IDIUse=1 WtCom= 1.00D+00 WtEn= 0.00D+00
 Coeff-Com:  0.203D-03-0.157D-03 0.217D-02 0.389D-02-0.453D-01-0.361D-01
 Coeff-Com:  0.108D+01
 Coeff:      0.203D-03-0.157D-03 0.217D-02 0.389D-02-0.453D-01-0.361D-01
 Coeff:      0.108D+01
 Gap=     0.058 Goal=   None    Shift=    0.000
 Gap=     0.114 Goal=   None    Shift=    0.000
 RMSDP=1.85D-05 MaxDP=2.90D-04 DE=-1.04D-07 OVMax= 0.00D+00

 Cycle   8  Pass 1  IDiag  1:
 E= -618.574697050776     Delta-E=       -0.000000005694 Rises=F Damp=F
 DIIS: error= 1.25D-06 at cycle   8 NSaved=   8.
 NSaved= 8 IEnMin= 8 EnMin= -618.574697050776     IErMin= 8 ErrMin= 1.25D-06
 ErrMax= 1.25D-06  0.00D+00 EMaxC= 1.00D-01 BMatC= 1.41D-10 BMatP= 1.81D-09
 IDIUse=1 WtCom= 1.00D+00 WtEn= 0.00D+00
 Coeff-Com: -0.145D-04-0.102D-04-0.683D-03-0.160D-02 0.160D-01-0.579D-01
 Coeff-Com: -0.186D+00 0.123D+01
 Coeff:     -0.145D-04-0.102D-04-0.683D-03-0.160D-02 0.160D-01-0.579D-01
 Coeff:     -0.186D+00 0.123D+01
 Gap=     0.058 Goal=   None    Shift=    0.000
 Gap=     0.114 Goal=   None    Shift=    0.000
 RMSDP=3.41D-06 MaxDP=4.66D-05 DE=-5.69D-09 OVMax= 0.00D+00

 Cycle   9  Pass 1  IDiag  1:
 E= -618.574697050998     Delta-E=       -0.000000000222 Rises=F Damp=F
 DIIS: error= 2.06D-07 at cycle   9 NSaved=   9.
 NSaved= 9 IEnMin= 9 EnMin= -618.574697050998     IErMin= 9 ErrMin= 2.06D-07
 ErrMax= 2.06D-07  0.00D+00 EMaxC= 1.00D-01 BMatC= 4.57D-12 BMatP= 1.41D-10
 IDIUse=1 WtCom= 1.00D+00 WtEn= 0.00D+00
 Coeff-Com: -0.916D-05 0.151D-04 0.342D-04 0.276D-03-0.144D-02 0.674D-02
 Coeff-Com:  0.247D-01-0.242D+00 0.121D+01
 Coeff:     -0.916D-05 0.151D-04 0.342D-04 0.276D-03-0.144D-02 0.674D-02
 Coeff:      0.247D-01-0.242D+00 0.121D+01
 Gap=     0.058 Goal=   None    Shift=    0.000
 Gap=     0.114 Goal=   None    Shift=    0.000
 RMSDP=7.63D-07 MaxDP=1.26D-05 DE=-2.22D-10 OVMax= 0.00D+00

 Cycle  10  Pass 1  IDiag  1:
 E= -618.574697051006     Delta-E=       -0.000000000008 Rises=F Damp=F
 DIIS: error= 4.56D-08 at cycle  10 NSaved=  10.
 NSaved=10 IEnMin=10 EnMin= -618.574697051006     IErMin=10 ErrMin= 4.56D-08
 ErrMax= 4.56D-08  0.00D+00 EMaxC= 1.00D-01 BMatC= 2.41D-13 BMatP= 4.57D-12
 IDIUse=1 WtCom= 1.00D+00 WtEn= 0.00D+00
 Coeff-Com:  0.109D-05-0.219D-05-0.379D-05-0.466D-04 0.117D-03-0.974D-03
 Coeff-Com: -0.460D-02 0.506D-01-0.393D+00 0.135D+01
 Coeff:      0.109D-05-0.219D-05-0.379D-05-0.466D-04 0.117D-03-0.974D-03
 Coeff:     -0.460D-02 0.506D-01-0.393D+00 0.135D+01
 Gap=     0.058 Goal=   None    Shift=    0.000
 Gap=     0.114 Goal=   None    Shift=    0.000
 RMSDP=1.10D-07 MaxDP=1.09D-06 DE=-7.73D-12 OVMax= 0.00D+00

 Cycle  11  Pass 1  IDiag  1:
 E= -618.574697051007     Delta-E=       -0.000000000001 Rises=F Damp=F
 DIIS: error= 4.48D-09 at cycle  11 NSaved=  11.
 NSaved=11 IEnMin=11 EnMin= -618.574697051007     IErMin=11 ErrMin= 4.48D-09
 ErrMax= 4.48D-09  0.00D+00 EMaxC= 1.00D-01 BMatC= 1.61D-15 BMatP= 2.41D-13
 IDIUse=1 WtCom= 1.00D+00 WtEn= 0.00D+00
 Coeff-Com:  0.664D-07 0.905D-07 0.125D-05 0.492D-05-0.115D-04 0.116D-03
 Coeff-Com:  0.625D-03-0.754D-02 0.589D-01-0.234D+00 0.118D+01
 Coeff:      0.664D-07 0.905D-07 0.125D-05 0.492D-05-0.115D-04 0.116D-03
 Coeff:      0.625D-03-0.754D-02 0.589D-01-0.234D+00 0.118D+01
 Gap=     0.058 Goal=   None    Shift=    0.000
 Gap=     0.114 Goal=   None    Shift=    0.000
 RMSDP=5.46D-09 MaxDP=6.44D-08 DE=-1.14D-12 OVMax= 0.00D+00

 SCF Done:  E(UB3LYP) =  -618.574697051     A.U. after   11 cycles
            NFock= 11  Conv=0.55D-08     -V/T= 1.9979
 <Sx>= 0.0000 <Sy>= 0.0000 <Sz>= 0.5000 <S**2>= 0.7513 S= 0.5006
 <L.S>= 0.000000000000E+00
 KE= 6.199029146180D+02 PE=-1.633773203454D+03 EE= 3.191754856260D+02
 Annihilation of the first spin contaminant:
 S**2 before annihilation     0.7513,   after     0.7500
 Leave Link  502 at Mon Oct 20 18:34:01 2025, MaxMem=    33554432 cpu:         1.0
 (Enter C:\G09W\l601.exe)
 Copying SCF densities to generalized density rwf, IOpCl= 1 IROHF=0.

 **********************************************************************

            Population analysis using the SCF density.

 **********************************************************************

 Orbital symmetries:
 Alpha Orbitals:
       Occupied  (SG) (SG) (SG) (SG) (PI) (PI) (SG) (SG) (PI) (PI)
                 (SG) (PI) (PI) (SG) (SG)
       Virtual   (PI) (PI) (SG) (SG) (PI) (PI) (SG) (SG) (PI) (PI)
                 (SG)
 Beta  Orbitals:
       Occupied  (SG) (SG) (SG) (SG) (PI) (PI) (SG) (SG) (PI) (PI)
                 (SG) (PI) (PI) (SG)
       Virtual   (SG) (PI) (PI) (SG) (SG) (PI) (PI) (SG) (SG) (PI)
                 (PI) (SG)
 The electronic state is 2-SG.
 Alpha  occ. eigenvalues -- -100.63382 -38.10056  -9.23139  -7.00565  -6.98503
 Alpha  occ. eigenvalues --   -6.98503  -2.21958  -1.21690  -1.08057  -1.08057
 Alpha  occ. eigenvalues --   -0.54714  -0.17266  -0.17266  -0.02720   0.05537
 Alpha virt. eigenvalues --    0.11327   0.11327   0.13072   0.21643   0.23481
 Alpha virt. eigenvalues --    0.23481   0.29995   0.80522   0.80892   0.80892
 Alpha virt. eigenvalues --    0.99001
  Beta  occ. eigenvalues -- -100.63253 -38.09895  -9.22997  -7.00254  -6.98414
  Beta  occ. eigenvalues --   -6.98414  -2.21664  -1.21015  -1.07941  -1.07941
  Beta  occ. eigenvalues --   -0.54123  -0.17004  -0.17004  -0.01613
  Beta virt. eigenvalues --    0.09831   0.12479   0.12479   0.13508   0.22937
  Beta virt. eigenvalues --    0.24026   0.24026   0.30565   0.81084   0.81275
  Beta virt. eigenvalues --    0.81275   0.99279
          Condensed to atoms (all electrons):
               1          2
     1  Na  11.746881  -0.295572
     2  Cl  -0.295572  17.844262
          Atomic-Atomic Spin Densities.
               1          2
     1  Na   0.995684  -0.098288
     2  Cl  -0.098288   0.200892
 Mulliken charges and spin densities:
               1          2
     1  Na  -0.451309   0.897396
     2  Cl  -0.548691   0.102604
 Sum of Mulliken charges =  -1.00000   1.00000
 Mulliken charges and spin densities with hydrogens summed into heavy atoms:
               1          2
     1  Na  -0.451309   0.897396
     2  Cl  -0.548691   0.102604
 Electronic spatial extent (au):  <R**2>=            133.4470
 Charge=             -1.0000 electrons
 Dipole moment (field-independent basis, Debye):
    X=              0.0000    Y=              0.0000    Z=              4.2690  Tot=              4.2690
 Quadrupole moment (field-independent basis, Debye-Ang):
   XX=            -36.5854   YY=            -36.5854   ZZ=            -52.1073
   XY=              0.0000   XZ=              0.0000   YZ=              0.0000
 Traceless Quadrupole moment (field-independent basis, Debye-Ang):
   XX=              5.1739   YY=              5.1739   ZZ=            -10.3479
   XY=              0.0000   XZ=              0.0000   YZ=              0.0000
 Octapole moment (field-independent basis, Debye-Ang**2):
  XXX=              0.0000  YYY=              0.0000  ZZZ=             91.1889  XYY=              0.0000
  XXY=              0.0000  XXZ=             23.9684  XZZ=              0.0000  YZZ=              0.0000
  YYZ=             23.9684  XYZ=              0.0000
 Hexadecapole moment (field-independent basis, Debye-Ang**3):
 XXXX=           -188.4150 YYYY=           -188.4150 ZZZZ=           -521.2710 XXXY=              0.0000
 XXXZ=              0.0000 YYYX=              0.0000 YYYZ=              0.0000 ZZZX=              0.0000
 ZZZY=              0.0000 XXYY=            -62.8050 XXZZ=           -113.6331 YYZZ=           -113.6331
 XXYZ=              0.0000 YYXZ=              0.0000 ZZXY=              0.0000
 N-N= 7.612010615872D+01 E-N=-1.633773204110D+03  KE= 6.199029146180D+02
 Symmetry A1   KE= 5.059796776811D+02
 Symmetry A2   KE= 0.000000000000D+00
 Symmetry B1   KE= 5.696161846846D+01
 Symmetry B2   KE= 5.696161846846D+01
                          Isotropic Fermi Contact Couplings
        Atom                 a.u.       MegaHertz       Gauss      10(-4) cm-1
     1  Na(23)             0.02663      31.50439      11.24155      10.50873
     2  Cl(35)             0.24234     106.25853      37.91569      35.44403
 --------------------------------------------------------
       Center         ----  Spin Dipole Couplings  ----
                      3XX-RR        3YY-RR        3ZZ-RR
 --------------------------------------------------------
     1   Atom       -0.249385     -0.249385      0.498769
     2   Atom       -0.361958     -0.361958      0.723917
 --------------------------------------------------------
                        XY            XZ            YZ
 --------------------------------------------------------
     1   Atom        0.000000      0.000000      0.000000
     2   Atom        0.000000      0.000000      0.000000
 --------------------------------------------------------


 ---------------------------------------------------------------------------------
              Anisotropic Spin Dipole Couplings in Principal Axis System
 ---------------------------------------------------------------------------------

       Atom             a.u.   MegaHertz   Gauss  10(-4) cm-1        Axes

              Baa    -0.2494   -35.217   -12.566   -11.747  0.0000  1.0000  0.0000
     1 Na(23) Bbb    -0.2494   -35.217   -12.566   -11.747  1.0000  0.0000  0.0000
              Bcc     0.4988    70.433    25.132    23.494  0.0000  0.0000  1.0000
 
              Baa    -0.3620   -18.944    -6.760    -6.319  1.0000  0.0000  0.0000
     2 Cl(35) Bbb    -0.3620   -18.944    -6.760    -6.319  0.0000  1.0000  0.0000
              Bcc     0.7239    37.888    13.519    12.638  0.0000  0.0000  1.0000
 

 ---------------------------------------------------------------------------------

 No NMR shielding tensors so no spin-rotation constants.
 Leave Link  601 at Mon Oct 20 18:34:01 2025, MaxMem=    33554432 cpu:         0.0
 (Enter C:\G09W\l9999.exe)
 1|1|UNPC-ALEXHPENVY|SP|UB3LYP|3-21G|Cl1Na1(1-,2)|XC0RP|20-Oct-2025|0||
 #p b3lyp/3-21g||Title Card Required||-1,2|Na,0,0.,0.,1.3|Cl,0,0.,0.,0.
 ||Version=IA32W-G09RevD.01|State=2-SG|HF=-618.5746971|S2=0.751271|S2-1
 =0.|S2A=0.75|RMSD=5.457e-009|Dipole=0.,0.,-1.6795733|Quadrupole=3.8467
 023,3.8467023,-7.6934047,0.,0.,0.|PG=C*V [C*(Na1Cl1)]||@


 A MAN SHOULD NEVER BE ASHAMED TO OWN HE HAS BEEN IN THE WRONG
 WHICH IS BUT SAYING IN OTHER WORDS,
 THAT HE IS WISER TODAY THAN HE WAS YESTERDAY.

                          -- JONATHAN SWIFT
 Job cpu time:       0 days  0 hours  0 minutes  2.0 seconds.
 File lengths (MBytes):  RWF=      5 Int=      0 D2E=      0 Chk=      1 Scr=      1
 Normal termination of Gaussian 09 at Mon Oct 20 18:34:01 2025.
