 Entering Link 1 = C:\G09W\l1.exe PID=     18880.
  
 Copyright (c) 1988,1990,1992,1993,1995,1998,2003,2009,2013,
            Gaussian, Inc.  All Rights Reserved.
  
 This is part of the Gaussian(R) 09 program.  It is based on
 the Gaussian(R) 03 system (copyright 2003, Gaussian, Inc.),
 the Gaussian(R) 98 system (copyright 1998, Gaussian, Inc.),
 the Gaussian(R) 94 system (copyright 1995, Gaussian, Inc.),
 the Gaussian 92(TM) system (copyright 1992, Gaussian, Inc.),
 the Gaussian 90(TM) system (copyright 1990, Gaussian, Inc.),
 the Gaussian 88(TM) system (copyright 1988, Gaussian, Inc.),
 the Gaussian 86(TM) system (copyright 1986, Carnegie Mellon
 University), and the Gaussian 82(TM) system (copyright 1983,
 Carnegie Mellon University). Gaussian is a federally registered
 trademark of Gaussian, Inc.
  
 This software contains proprietary and confidential information,
 including trade secrets, belonging to Gaussian, Inc.
  
 This software is provided under written license and may be
 used, copied, transmitted, or stored only in accord with that
 written license.
  
 The following legend is applicable only to US Government
 contracts under FAR:
  
                    RESTRICTED RIGHTS LEGEND
  
 Use, reproduction and disclosure by the US Government is
 subject to restrictions as set forth in subparagraphs (a)
 and (c) of the Commercial Computer Software - Restricted
 Rights clause in FAR 52.227-19.
  
 Gaussian, Inc.
 340 Quinnipiac St., Bldg. 40, Wallingford CT 06492
  
  
 ---------------------------------------------------------------
 Warning -- This program may not be used in any manner that
 competes with the business of Gaussian, Inc. or will provide
 assistance to any competitor of Gaussian, Inc.  The licensee
 of this program is prohibited from giving any competitor of
 Gaussian, Inc. access to this program.  By using this program,
 the user acknowledges that Gaussian, Inc. is engaged in the
 business of creating and licensing software in the field of
 computational chemistry and represents and warrants to the
 licensee that it is not a competitor of Gaussian, Inc. and that
 it will not use this program in any manner prohibited above.
 ---------------------------------------------------------------
  

 Cite this work as:
 Gaussian 09, Revision D.01,
 M. J. Frisch, G. W. Trucks, H. B. Schlegel, G. E. Scuseria, 
 M. A. Robb, J. R. Cheeseman, G. Scalmani, V. Barone, B. Mennucci, 
 G. A. Petersson, H. Nakatsuji, M. Caricato, X. Li, H. P. Hratchian, 
 A. F. Izmaylov, J. Bloino, G. Zheng, J. L. Sonnenberg, M. Hada, 
 M. Ehara, K. Toyota, R. Fukuda, J. Hasegawa, M. Ishida, T. Nakajima, 
 Y. Honda, O. Kitao, H. Nakai, T. Vreven, J. A. Montgomery, Jr., 
 J. E. Peralta, F. Ogliaro, M. Bearpark, J. J. Heyd, E. Brothers, 
 K. N. Kudin, V. N. Staroverov, T. Keith, R. Kobayashi, J. Normand, 
 K. Raghavachari, A. Rendell, J. C. Burant, S. S. Iyengar, J. Tomasi, 
 M. Cossi, N. Rega, J. M. Millam, M. Klene, J. E. Knox, J. B. Cross, 
 V. Bakken, C. Adamo, J. Jaramillo, R. Gomperts, R. E. Stratmann, 
 O. Yazyev, A. J. Austin, R. Cammi, C. Pomelli, J. W. Ochterski, 
 R. L. Martin, K. Morokuma, V. G. Zakrzewski, G. A. Voth, 
 P. Salvador, J. J. Dannenberg, S. Dapprich, A. D. Daniels, 
 O. Farkas, J. B. Foresman, J. V. Ortiz, J. Cioslowski, 
 and D. J. Fox, Gaussian, Inc., Wallingford CT, 2013.
 
 ******************************************
 Gaussian 09:  IA32W-G09RevD.01 24-Apr-2013
                20-Oct-2025 
 ******************************************
 %chk=C:\Users\Xc0rp\Desktop\quimica\NaCl-1_0.chk
 --------------
 #p b3lyp/3-21g
 --------------
 1/38=1/1;
 2/12=2,17=6,18=5,40=1/2;
 3/5=5,11=2,16=1,25=1,30=1,74=-5/1,2,3;
 4//1;
 5/5=2,38=5/2;
 6/7=2,8=2,9=2,10=2,28=1/1;
 99/5=1,9=1/99;
 Leave Link    1 at Mon Oct 20 18:34:23 2025, MaxMem=           0 cpu:         0.0
 (Enter C:\G09W\l101.exe)
 -------------------
 Title Card Required
 -------------------
 Symbolic Z-matrix:
 Charge = -1 Multiplicity = 2
 Na                    0.        0.        6. 
 Cl                    0.        0.        0. 
 
 NAtoms=      2 NQM=        2 NQMF=       0 NMMI=      0 NMMIF=      0
                NMic=       0 NMicF=      0.
                    Isotopes and Nuclear Properties:
 (Nuclear quadrupole moments (NQMom) in fm**2, nuclear magnetic moments (NMagM)
  in nuclear magnetons)

  Atom         1           2
 IAtWgt=          23          35
 AtmWgt=  22.9897697  34.9688527
 NucSpn=           3           3
 AtZEff=   0.0000000   0.0000000
 NQMom=   10.4000000  -8.1650000
 NMagM=    2.2175200   0.8218740
 AtZNuc=  11.0000000  17.0000000
 Leave Link  101 at Mon Oct 20 18:34:23 2025, MaxMem=    33554432 cpu:         0.0
 (Enter C:\G09W\l202.exe)
                          Input orientation:                          
 ---------------------------------------------------------------------
 Center     Atomic      Atomic             Coordinates (Angstroms)
 Number     Number       Type             X           Y           Z
 ---------------------------------------------------------------------
      1         11           0        0.000000    0.000000    6.000000
      2         17           0        0.000000    0.000000    0.000000
 ---------------------------------------------------------------------
 Stoichiometry    ClNa(1-,2)
 Framework group  C*V[C*(NaCl)]
 Deg. of freedom     1
 Full point group                 C*V     NOp   4
 Largest Abelian subgroup         C2V     NOp   4
 Largest concise Abelian subgroup C1      NOp   1
                         Standard orientation:                         
 ---------------------------------------------------------------------
 Center     Atomic      Atomic             Coordinates (Angstroms)
 Number     Number       Type             X           Y           Z
 ---------------------------------------------------------------------
      1         11           0        0.000000    0.000000   -3.642857
      2         17           0        0.000000    0.000000    2.357143
 ---------------------------------------------------------------------
 Rotational constants (GHZ):      0.0000000      1.0120844      1.0120844
 Leave Link  202 at Mon Oct 20 18:34:23 2025, MaxMem=    33554432 cpu:         0.0
 (Enter C:\G09W\l301.exe)
 Standard basis: 3-21G (6D, 7F)
 Ernie: Thresh=  0.10000D-02 Tol=  0.10000D-05 Strict=F.
 There are    14 symmetry adapted cartesian basis functions of A1  symmetry.
 There are     0 symmetry adapted cartesian basis functions of A2  symmetry.
 There are     6 symmetry adapted cartesian basis functions of B1  symmetry.
 There are     6 symmetry adapted cartesian basis functions of B2  symmetry.
 There are    14 symmetry adapted basis functions of A1  symmetry.
 There are     0 symmetry adapted basis functions of A2  symmetry.
 There are     6 symmetry adapted basis functions of B1  symmetry.
 There are     6 symmetry adapted basis functions of B2  symmetry.
    26 basis functions,    54 primitive gaussians,    26 cartesian basis functions
    15 alpha electrons       14 beta electrons
       nuclear repulsion energy        16.4926896677 Hartrees.
 IExCor=  402 DFT=T Ex+Corr=B3LYP ExCW=0 ScaHFX=  0.200000
 ScaDFX=  0.800000  0.720000  1.000000  0.810000 ScalE2=  1.000000  1.000000
 IRadAn=      0 IRanWt=     -1 IRanGd=            0 ICorTp=0 IEmpDi=  4
 NAtoms=    2 NActive=    2 NUniq=    2 SFac= 1.00D+00 NAtFMM=   60 NAOKFM=F Big=F
 Integral buffers will be    262144 words long.
 Raffenetti 2 integral format.
 Two-electron integral symmetry is turned on.
 Leave Link  301 at Mon Oct 20 18:34:23 2025, MaxMem=    33554432 cpu:         0.0
 (Enter C:\G09W\l302.exe)
 NPDir=0 NMtPBC=     1 NCelOv=     1 NCel=       1 NClECP=     1 NCelD=      1
         NCelK=      1 NCelE2=     1 NClLst=     1 CellRange=     0.0.
 One-electron integrals computed using PRISM.
 NBasis=    26 RedAO= T EigKep=  2.37D-01  NBF=    14     0     6     6
 NBsUse=    26 1.00D-06 EigRej= -1.00D+00 NBFU=    14     0     6     6
 Precomputing XC quadrature grid using
 IXCGrd= 4 IRadAn=           0 IRanWt=          -1 IRanGd=           0 AccXCQ= 0.00D+00.
 Generated NRdTot=       0 NPtTot=           0 NUsed=           0 NTot=          16
 NSgBfM=    21    21    21    21    21 MxSgAt=     2 MxSgA2=     2.
 Leave Link  302 at Mon Oct 20 18:34:23 2025, MaxMem=    33554432 cpu:         0.0
 (Enter C:\G09W\l303.exe)
 DipDrv:  MaxL=1.
 Leave Link  303 at Mon Oct 20 18:34:23 2025, MaxMem=    33554432 cpu:         0.0
 (Enter C:\G09W\l401.exe)
 ExpMin= 2.44D-02 ExpMax= 1.38D+03 ExpMxC= 1.38D+03 IAcc=3 IRadAn=         5 AccDes= 0.00D+00
 Harris functional with IExCor=  402 and IRadAn=       5 diagonalized for initial guess.
 HarFok:  IExCor=  402 AccDes= 0.00D+00 IRadAn=         5 IDoV= 1 UseB2=F ITyADJ=14
 ICtDFT=  3500011 ScaDFX=  1.000000  1.000000  1.000000  1.000000
 FoFCou: FMM=F IPFlag=           0 FMFlag=      100000 FMFlg1=           0
         NFxFlg=           0 DoJE=T BraDBF=F KetDBF=T FulRan=T
         wScrn=  0.000000 ICntrl=     500 IOpCl=  0 I1Cent=   200000004 NGrid=           0
         NMat0=    1 NMatS0=      1 NMatT0=    0 NMatD0=    1 NMtDS0=    0 NMtDT0=    0
 Petite list used in FoFCou.
 Harris En= -619.357300490073    
 JPrj=0 DoOrth=F DoCkMO=F.
 Initial guess orbital symmetries:
 Alpha Orbitals:
       Occupied  (SG) (SG) (SG) (SG) (PI) (PI) (SG) (SG) (PI) (PI)
                 (SG) (SG) (PI) (PI) (SG)
       Virtual   (PI) (PI) (SG) (SG) (SG) (PI) (PI) (SG) (PI) (PI)
                 (SG)
 Beta  Orbitals:
       Occupied  (SG) (SG) (SG) (SG) (PI) (PI) (SG) (SG) (PI) (PI)
                 (SG) (SG) (PI) (PI)
       Virtual   (SG) (PI) (PI) (SG) (SG) (SG) (PI) (PI) (SG) (PI)
                 (PI) (SG)
 The electronic state of the initial guess is 2-SG.
 Initial guess <Sx>= 0.0000 <Sy>= 0.0000 <Sz>= 0.5000 <S**2>= 0.7500 S= 0.5000
 Leave Link  401 at Mon Oct 20 18:34:23 2025, MaxMem=    33554432 cpu:         0.0
 (Enter C:\G09W\l502.exe)
 UHF open shell SCF:
 Using DIIS extrapolation, IDIIS=  1040.
 Integral symmetry usage will be decided dynamically.
 Keep R1 and R2 ints in memory in symmetry-blocked form, NReq=939475.
 IVT=       20802 IEndB=       20802 NGot=    33554432 MDV=    33495249
 LenX=    33495249 LenY=    33494132
 Requested convergence on RMS density matrix=1.00D-08 within 128 cycles.
 Requested convergence on MAX density matrix=1.00D-06.
 Requested convergence on             energy=1.00D-06.
 No special actions if energy rises.
 FoFCou: FMM=F IPFlag=           0 FMFlag=           0 FMFlg1=           0
         NFxFlg=           0 DoJE=F BraDBF=F KetDBF=F FulRan=T
         wScrn=  0.000000 ICntrl=     600 IOpCl=  0 I1Cent=           0 NGrid=           0
         NMat0=    1 NMatS0=    351 NMatT0=    0 NMatD0=    1 NMtDS0=    0 NMtDT0=    0
 Petite list used in FoFCou.

 Cycle   1  Pass 1  IDiag  1:
 E= -619.304036003569    
 DIIS: error= 3.28D-02 at cycle   1 NSaved=   1.
 NSaved= 1 IEnMin= 1 EnMin= -619.304036003569     IErMin= 1 ErrMin= 3.28D-02
 ErrMax= 3.28D-02  0.00D+00 EMaxC= 1.00D-01 BMatC= 8.60D-02 BMatP= 8.60D-02
 IDIUse=3 WtCom= 6.72D-01 WtEn= 3.28D-01
 Coeff-Com:  0.100D+01
 Coeff-En:   0.100D+01
 Coeff:      0.100D+01
 Gap=    -0.029 Goal=   None    Shift=    0.000
 Gap=    -0.005 Goal=   None    Shift=    0.000
 GapD=   -0.029 DampG=0.250 DampE=0.500 DampFc=0.2500 IDamp=-1.
 Damping current iteration by 2.50D-01
 RMSDP=5.98D-02 MaxDP=5.43D-01              OVMax= 7.54D-03

 Cycle   2  Pass 1  IDiag  1:
 E= -619.082811800505     Delta-E=        0.221224203064 Rises=F Damp=T
 DIIS: error= 2.69D-02 at cycle   2 NSaved=   2.
 NSaved= 2 IEnMin= 1 EnMin= -619.304036003569     IErMin= 2 ErrMin= 2.69D-02
 ErrMax= 2.69D-02  0.00D+00 EMaxC= 1.00D-01 BMatC= 7.00D-02 BMatP= 8.60D-02
 IDIUse=3 WtCom= 7.31D-01 WtEn= 2.69D-01
 Coeff-Com:  0.466D+00 0.534D+00
 Coeff-En:   0.909D+00 0.908D-01
 Coeff:      0.585D+00 0.415D+00
 Gap=    -0.160 Goal=   None    Shift=    0.000
 Gap=    -0.009 Goal=   None    Shift=    0.000
 RMSDP=1.52D-02 MaxDP=1.43D-01 DE= 2.21D-01 OVMax= 9.63D-04

 Cycle   3  Pass 1  IDiag  1:
 E= -619.328374496984     Delta-E=       -0.245562696479 Rises=F Damp=F
 DIIS: error= 1.12D-02 at cycle   3 NSaved=   3.
 NSaved= 3 IEnMin= 3 EnMin= -619.328374496984     IErMin= 3 ErrMin= 1.12D-02
 ErrMax= 1.12D-02  0.00D+00 EMaxC= 1.00D-01 BMatC= 1.33D-02 BMatP= 7.00D-02
 IDIUse=3 WtCom= 8.88D-01 WtEn= 1.12D-01
 Coeff-Com: -0.280D+00 0.209D+00 0.107D+01
 Coeff-En:   0.000D+00 0.000D+00 0.100D+01
 Coeff:     -0.248D+00 0.185D+00 0.106D+01
 Gap=     0.097 Goal=   None    Shift=    0.000
 Gap=     0.061 Goal=   None    Shift=    0.000
 RMSDP=3.31D-03 MaxDP=5.37D-02 DE=-2.46D-01 OVMax= 0.00D+00

 Cycle   4  Pass 1  IDiag  1:
 E= -619.333269815429     Delta-E=       -0.004895318446 Rises=F Damp=F
 DIIS: error= 6.27D-03 at cycle   4 NSaved=   4.
 NSaved= 4 IEnMin= 4 EnMin= -619.333269815429     IErMin= 4 ErrMin= 6.27D-03
 ErrMax= 6.27D-03  0.00D+00 EMaxC= 1.00D-01 BMatC= 4.39D-03 BMatP= 1.33D-02
 IDIUse=3 WtCom= 9.37D-01 WtEn= 6.27D-02
 Coeff-Com: -0.490D-01 0.617D-01-0.793D+00 0.178D+01
 Coeff-En:   0.000D+00 0.000D+00 0.000D+00 0.100D+01
 Coeff:     -0.459D-01 0.578D-01-0.743D+00 0.173D+01
 Gap=     0.072 Goal=   None    Shift=    0.000
 Gap=     0.029 Goal=   None    Shift=    0.000
 RMSDP=3.57D-03 MaxDP=4.73D-02 DE=-4.90D-03 OVMax= 0.00D+00

 Cycle   5  Pass 1  IDiag  1:
 E= -619.335857934136     Delta-E=       -0.002588118707 Rises=F Damp=F
 DIIS: error= 1.43D-03 at cycle   5 NSaved=   5.
 NSaved= 5 IEnMin= 5 EnMin= -619.335857934136     IErMin= 5 ErrMin= 1.43D-03
 ErrMax= 1.43D-03  0.00D+00 EMaxC= 1.00D-01 BMatC= 2.54D-04 BMatP= 4.39D-03
 IDIUse=3 WtCom= 9.86D-01 WtEn= 1.43D-02
 Coeff-Com: -0.910D-02 0.108D-01 0.226D+00-0.645D+00 0.142D+01
 Coeff-En:   0.000D+00 0.000D+00 0.000D+00 0.000D+00 0.100D+01
 Coeff:     -0.897D-02 0.106D-01 0.223D+00-0.636D+00 0.141D+01
 Gap=     0.066 Goal=   None    Shift=    0.000
 Gap=     0.021 Goal=   None    Shift=    0.000
 RMSDP=3.12D-03 MaxDP=3.66D-02 DE=-2.59D-03 OVMax= 0.00D+00

 Cycle   6  Pass 1  IDiag  1:
 E= -619.336443419979     Delta-E=       -0.000585485843 Rises=F Damp=F
 DIIS: error= 1.02D-03 at cycle   6 NSaved=   6.
 NSaved= 6 IEnMin= 6 EnMin= -619.336443419979     IErMin= 6 ErrMin= 1.02D-03
 ErrMax= 1.02D-03  0.00D+00 EMaxC= 1.00D-01 BMatC= 1.20D-04 BMatP= 2.54D-04
 IDIUse=3 WtCom= 9.90D-01 WtEn= 1.02D-02
 Coeff-Com: -0.136D-02 0.363D-02-0.160D+00 0.484D+00-0.209D+00 0.883D+00
 Coeff-En:   0.000D+00 0.000D+00 0.000D+00 0.000D+00 0.000D+00 0.100D+01
 Coeff:     -0.135D-02 0.359D-02-0.158D+00 0.479D+00-0.207D+00 0.884D+00
 Gap=     0.072 Goal=   None    Shift=    0.000
 Gap=     0.025 Goal=   None    Shift=    0.000
 RMSDP=8.24D-04 MaxDP=9.79D-03 DE=-5.85D-04 OVMax= 0.00D+00

 Cycle   7  Pass 1  IDiag  1:
 E= -619.336537160717     Delta-E=       -0.000093740738 Rises=F Damp=F
 DIIS: error= 5.03D-04 at cycle   7 NSaved=   7.
 NSaved= 7 IEnMin= 7 EnMin= -619.336537160717     IErMin= 7 ErrMin= 5.03D-04
 ErrMax= 5.03D-04  0.00D+00 EMaxC= 1.00D-01 BMatC= 2.64D-05 BMatP= 1.20D-04
 IDIUse=3 WtCom= 9.95D-01 WtEn= 5.03D-03
 Coeff-Com: -0.173D-02 0.140D-02 0.532D-01-0.133D+00-0.464D-01-0.167D+01
 Coeff-Com:  0.280D+01
 Coeff-En:   0.000D+00 0.000D+00 0.000D+00 0.000D+00 0.000D+00 0.000D+00
 Coeff-En:   0.100D+01
 Coeff:     -0.173D-02 0.139D-02 0.530D-01-0.132D+00-0.462D-01-0.166D+01
 Coeff:      0.279D+01
 Gap=     0.082 Goal=   None    Shift=    0.000
 Gap=     0.028 Goal=   None    Shift=    0.000
 RMSDP=1.35D-03 MaxDP=1.54D-02 DE=-9.37D-05 OVMax= 0.00D+00

 Cycle   8  Pass 1  IDiag  1:
 E= -619.336575664620     Delta-E=       -0.000038503903 Rises=F Damp=F
 DIIS: error= 1.87D-04 at cycle   8 NSaved=   8.
 NSaved= 8 IEnMin= 8 EnMin= -619.336575664620     IErMin= 8 ErrMin= 1.87D-04
 ErrMax= 1.87D-04  0.00D+00 EMaxC= 1.00D-01 BMatC= 4.04D-06 BMatP= 2.64D-05
 IDIUse=3 WtCom= 9.98D-01 WtEn= 1.87D-03
 Coeff-Com:  0.654D-04-0.132D-03 0.307D-02-0.170D-01 0.360D-01 0.403D+00
 Coeff-Com: -0.486D+00 0.106D+01
 Coeff-En:   0.000D+00 0.000D+00 0.000D+00 0.000D+00 0.000D+00 0.000D+00
 Coeff-En:   0.000D+00 0.100D+01
 Coeff:      0.653D-04-0.132D-03 0.307D-02-0.169D-01 0.359D-01 0.403D+00
 Coeff:     -0.485D+00 0.106D+01
 Gap=     0.080 Goal=   None    Shift=    0.000
 Gap=     0.027 Goal=   None    Shift=    0.000
 RMSDP=3.21D-04 MaxDP=3.55D-03 DE=-3.85D-05 OVMax= 0.00D+00

 Cycle   9  Pass 1  IDiag  1:
 E= -619.336578620785     Delta-E=       -0.000002956165 Rises=F Damp=F
 DIIS: error= 5.13D-05 at cycle   9 NSaved=   9.
 NSaved= 9 IEnMin= 9 EnMin= -619.336578620785     IErMin= 9 ErrMin= 5.13D-05
 ErrMax= 5.13D-05  0.00D+00 EMaxC= 1.00D-01 BMatC= 3.38D-07 BMatP= 4.04D-06
 IDIUse=1 WtCom= 1.00D+00 WtEn= 0.00D+00
 Coeff-Com:  0.150D-03-0.179D-03-0.429D-02 0.850D-02-0.328D-01 0.725D-01
 Coeff-Com: -0.603D-01 0.187D+00 0.829D+00
 Coeff:      0.150D-03-0.179D-03-0.429D-02 0.850D-02-0.328D-01 0.725D-01
 Coeff:     -0.603D-01 0.187D+00 0.829D+00
 Gap=     0.080 Goal=   None    Shift=    0.000
 Gap=     0.027 Goal=   None    Shift=    0.000
 RMSDP=8.97D-05 MaxDP=9.47D-04 DE=-2.96D-06 OVMax= 0.00D+00

 Cycle  10  Pass 1  IDiag  1:
 E= -619.336578942309     Delta-E=       -0.000000321525 Rises=F Damp=F
 DIIS: error= 1.08D-05 at cycle  10 NSaved=  10.
 NSaved=10 IEnMin=10 EnMin= -619.336578942309     IErMin=10 ErrMin= 1.08D-05
 ErrMax= 1.08D-05  0.00D+00 EMaxC= 1.00D-01 BMatC= 3.30D-09 BMatP= 3.38D-07
 IDIUse=1 WtCom= 1.00D+00 WtEn= 0.00D+00
 Coeff-Com: -0.856D-05-0.141D-05-0.867D-03 0.114D-02 0.385D-02 0.652D-02
 Coeff-Com: -0.111D-01-0.363D-01 0.139D+00 0.898D+00
 Coeff:     -0.856D-05-0.141D-05-0.867D-03 0.114D-02 0.385D-02 0.652D-02
 Coeff:     -0.111D-01-0.363D-01 0.139D+00 0.898D+00
 Gap=     0.080 Goal=   None    Shift=    0.000
 Gap=     0.027 Goal=   None    Shift=    0.000
 RMSDP=3.26D-05 MaxDP=3.27D-04 DE=-3.22D-07 OVMax= 0.00D+00

 Cycle  11  Pass 1  IDiag  1:
 E= -619.336578969391     Delta-E=       -0.000000027082 Rises=F Damp=F
 DIIS: error= 1.89D-06 at cycle  11 NSaved=  11.
 NSaved=11 IEnMin=11 EnMin= -619.336578969391     IErMin=11 ErrMin= 1.89D-06
 ErrMax= 1.89D-06  0.00D+00 EMaxC= 1.00D-01 BMatC= 1.07D-10 BMatP= 3.30D-09
 IDIUse=1 WtCom= 1.00D+00 WtEn= 0.00D+00
 Coeff-Com: -0.720D-05 0.145D-06 0.308D-03-0.532D-03 0.416D-03-0.864D-03
 Coeff-Com: -0.642D-03 0.114D-01-0.725D-01-0.643D-01 0.113D+01
 Coeff:     -0.720D-05 0.145D-06 0.308D-03-0.532D-03 0.416D-03-0.864D-03
 Coeff:     -0.642D-03 0.114D-01-0.725D-01-0.643D-01 0.113D+01
 Gap=     0.080 Goal=   None    Shift=    0.000
 Gap=     0.027 Goal=   None    Shift=    0.000
 RMSDP=6.88D-06 MaxDP=6.25D-05 DE=-2.71D-08 OVMax= 0.00D+00

 Cycle  12  Pass 1  IDiag  1:
 E= -619.336578971056     Delta-E=       -0.000000001665 Rises=F Damp=F
 DIIS: error= 5.35D-07 at cycle  12 NSaved=  12.
 NSaved=12 IEnMin=12 EnMin= -619.336578971056     IErMin=12 ErrMin= 5.35D-07
 ErrMax= 5.35D-07  0.00D+00 EMaxC= 1.00D-01 BMatC= 3.55D-11 BMatP= 1.07D-10
 IDIUse=1 WtCom= 1.00D+00 WtEn= 0.00D+00
 Coeff-Com:  0.251D-05-0.245D-06-0.667D-04 0.152D-03-0.261D-03 0.971D-04
 Coeff-Com:  0.722D-04-0.551D-03 0.177D-01-0.169D-01-0.210D+00 0.121D+01
 Coeff:      0.251D-05-0.245D-06-0.667D-04 0.152D-03-0.261D-03 0.971D-04
 Coeff:      0.722D-04-0.551D-03 0.177D-01-0.169D-01-0.210D+00 0.121D+01
 Gap=     0.080 Goal=   None    Shift=    0.000
 Gap=     0.027 Goal=   None    Shift=    0.000
 RMSDP=3.51D-07 MaxDP=4.71D-06 DE=-1.66D-09 OVMax= 0.00D+00

 Cycle  13  Pass 1  IDiag  1:
 E= -619.336578971075     Delta-E=       -0.000000000019 Rises=F Damp=F
 DIIS: error= 5.19D-08 at cycle  13 NSaved=  13.
 NSaved=13 IEnMin=13 EnMin= -619.336578971075     IErMin=13 ErrMin= 5.19D-08
 ErrMax= 5.19D-08  0.00D+00 EMaxC= 1.00D-01 BMatC= 7.17D-14 BMatP= 3.55D-11
 IDIUse=1 WtCom= 1.00D+00 WtEn= 0.00D+00
 Coeff-Com: -0.112D-06 0.129D-08 0.260D-05-0.728D-05 0.172D-04-0.152D-04
 Coeff-Com:  0.612D-04-0.386D-03 0.394D-03 0.155D-02 0.508D-02-0.116D+00
 Coeff-Com:  0.111D+01
 Coeff:     -0.112D-06 0.129D-08 0.260D-05-0.728D-05 0.172D-04-0.152D-04
 Coeff:      0.612D-04-0.386D-03 0.394D-03 0.155D-02 0.508D-02-0.116D+00
 Coeff:      0.111D+01
 Gap=     0.080 Goal=   None    Shift=    0.000
 Gap=     0.027 Goal=   None    Shift=    0.000
 RMSDP=1.75D-07 MaxDP=1.57D-06 DE=-1.91D-11 OVMax= 0.00D+00

 Cycle  14  Pass 1  IDiag  1:
 E= -619.336578971077     Delta-E=       -0.000000000002 Rises=F Damp=F
 DIIS: error= 2.71D-09 at cycle  14 NSaved=  14.
 NSaved=14 IEnMin=14 EnMin= -619.336578971077     IErMin=14 ErrMin= 2.71D-09
 ErrMax= 2.71D-09  0.00D+00 EMaxC= 1.00D-01 BMatC= 8.51D-16 BMatP= 7.17D-14
 IDIUse=1 WtCom= 1.00D+00 WtEn= 0.00D+00
 Coeff-Com:  0.462D-08 0.436D-09 0.200D-06-0.638D-06 0.147D-05 0.784D-06
 Coeff-Com: -0.663D-05 0.380D-04-0.173D-03 0.402D-04 0.436D-03-0.320D-02
 Coeff-Com: -0.478D-01 0.105D+01
 Coeff:      0.462D-08 0.436D-09 0.200D-06-0.638D-06 0.147D-05 0.784D-06
 Coeff:     -0.663D-05 0.380D-04-0.173D-03 0.402D-04 0.436D-03-0.320D-02
 Coeff:     -0.478D-01 0.105D+01
 Gap=     0.080 Goal=   None    Shift=    0.000
 Gap=     0.027 Goal=   None    Shift=    0.000
 RMSDP=1.15D-08 MaxDP=1.05D-07 DE=-1.59D-12 OVMax= 0.00D+00

 Cycle  15  Pass 1  IDiag  1:
 E= -619.336578971077     Delta-E=        0.000000000000 Rises=F Damp=F
 DIIS: error= 3.43D-10 at cycle  15 NSaved=  15.
 NSaved=15 IEnMin=14 EnMin= -619.336578971077     IErMin=15 ErrMin= 3.43D-10
 ErrMax= 3.43D-10  0.00D+00 EMaxC= 1.00D-01 BMatC= 6.71D-18 BMatP= 8.51D-16
 IDIUse=1 WtCom= 1.00D+00 WtEn= 0.00D+00
 Coeff-Com: -0.463D-09 0.248D-09-0.666D-07 0.205D-06-0.420D-06-0.721D-07
 Coeff-Com:  0.538D-06-0.681D-06 0.171D-04-0.126D-04-0.194D-03 0.209D-02
 Coeff-Com: -0.716D-02-0.164D+00 0.117D+01
 Coeff:     -0.463D-09 0.248D-09-0.666D-07 0.205D-06-0.420D-06-0.721D-07
 Coeff:      0.538D-06-0.681D-06 0.171D-04-0.126D-04-0.194D-03 0.209D-02
 Coeff:     -0.716D-02-0.164D+00 0.117D+01
 Gap=     0.080 Goal=   None    Shift=    0.000
 Gap=     0.027 Goal=   None    Shift=    0.000
 RMSDP=1.09D-09 MaxDP=1.01D-08 DE= 2.27D-13 OVMax= 0.00D+00

 SCF Done:  E(UB3LYP) =  -619.336578971     A.U. after   15 cycles
            NFock= 15  Conv=0.11D-08     -V/T= 2.0040
 <Sx>= 0.0000 <Sy>= 0.0000 <Sz>= 0.5000 <S**2>= 0.7517 S= 0.5009
 <L.S>= 0.000000000000E+00
 KE= 6.168630094465D+02 PE=-1.516297117643D+03 EE= 2.636048395581D+02
 Annihilation of the first spin contaminant:
 S**2 before annihilation     0.7517,   after     0.7500
 Leave Link  502 at Mon Oct 20 18:34:24 2025, MaxMem=    33554432 cpu:         1.0
 (Enter C:\G09W\l601.exe)
 Copying SCF densities to generalized density rwf, IOpCl= 1 IROHF=0.

 **********************************************************************

            Population analysis using the SCF density.

 **********************************************************************

 Orbital symmetries:
 Alpha Orbitals:
       Occupied  (SG) (SG) (SG) (SG) (PI) (PI) (SG) (PI) (PI) (SG)
                 (SG) (SG) (SG) (PI) (PI)
       Virtual   (PI) (PI) (SG) (SG) (PI) (PI) (SG) (SG) (PI) (PI)
                 (SG)
 Beta  Orbitals:
       Occupied  (SG) (SG) (SG) (SG) (PI) (PI) (SG) (PI) (PI) (SG)
                 (SG) (PI) (PI) (SG)
       Virtual   (SG) (PI) (PI) (SG) (SG) (PI) (PI) (SG) (SG) (PI)
                 (PI) (SG)
 The electronic state is 2-SG.
 Alpha  occ. eigenvalues -- -100.48282 -38.13306  -9.04717  -6.81624  -6.81367
 Alpha  occ. eigenvalues --   -6.81367  -2.10864  -1.03430  -1.03430  -1.03393
 Alpha  occ. eigenvalues --   -0.46607  -0.03536  -0.01900  -0.01362  -0.01362
 Alpha virt. eigenvalues --    0.06630   0.06630   0.08066   0.14673   0.16924
 Alpha virt. eigenvalues --    0.16924   0.19157   0.76114   0.86095   0.86095
 Alpha virt. eigenvalues --    0.86798
  Beta  occ. eigenvalues -- -100.48227 -38.13182  -9.04665  -6.81453  -6.81336
  Beta  occ. eigenvalues --   -6.81336  -2.10619  -1.03280  -1.03280  -1.03236
  Beta  occ. eigenvalues --   -0.46215  -0.01229  -0.01229  -0.00983
  Beta virt. eigenvalues --    0.01720   0.07835   0.07835   0.09291   0.15830
  Beta virt. eigenvalues --    0.18007   0.18007   0.19785   0.76265   0.86169
  Beta virt. eigenvalues --    0.86169   0.87177
          Condensed to atoms (all electrons):
               1          2
     1  Na  11.107651   0.026362
     2  Cl   0.026362  17.839625
          Atomic-Atomic Spin Densities.
               1          2
     1  Na   0.921358  -0.003102
     2  Cl  -0.003102   0.084845
 Mulliken charges and spin densities:
               1          2
     1  Na  -0.134013   0.918257
     2  Cl  -0.865987   0.081743
 Sum of Mulliken charges =  -1.00000   1.00000
 Mulliken charges and spin densities with hydrogens summed into heavy atoms:
               1          2
     1  Na  -0.134013   0.918257
     2  Cl  -0.865987   0.081743
 Electronic spatial extent (au):  <R**2>=            958.5438
 Charge=             -1.0000 electrons
 Dipole moment (field-independent basis, Debye):
    X=              0.0000    Y=              0.0000    Z=             -5.8015  Tot=              5.8015
 Quadrupole moment (field-independent basis, Debye-Ang):
   XX=            -29.1962   YY=            -29.1962   ZZ=            -76.0543
   XY=              0.0000   XZ=              0.0000   YZ=              0.0000
 Traceless Quadrupole moment (field-independent basis, Debye-Ang):
   XX=             15.6194   YY=             15.6194   ZZ=            -31.2388
   XY=              0.0000   XZ=              0.0000   YZ=              0.0000
 Octapole moment (field-independent basis, Debye-Ang**2):
  XXX=              0.0000  YYY=              0.0000  ZZZ=            132.1246  XYY=              0.0000
  XXY=              0.0000  XXZ=             19.3729  XZZ=              0.0000  YZZ=              0.0000
  YYZ=             19.3729  XYZ=              0.0000
 Hexadecapole moment (field-independent basis, Debye-Ang**3):
 XXXX=            -92.9318 YYYY=            -92.9318 ZZZZ=          -2640.0089 XXXY=              0.0000
 XXXZ=              0.0000 YYYX=              0.0000 YYYZ=              0.0000 ZZZX=              0.0000
 ZZZY=              0.0000 XXYY=            -30.9773 XXZZ=           -333.2260 YYZZ=           -333.2260
 XXYZ=              0.0000 YYXZ=              0.0000 ZZXY=              0.0000
 N-N= 1.649268966772D+01 E-N=-1.516297117567D+03  KE= 6.168630094465D+02
 Symmetry A1   KE= 5.043288115375D+02
 Symmetry A2   KE= 0.000000000000D+00
 Symmetry B1   KE= 5.626709895451D+01
 Symmetry B2   KE= 5.626709895450D+01
                          Isotropic Fermi Contact Couplings
        Atom                 a.u.       MegaHertz       Gauss      10(-4) cm-1
     1  Na(23)             0.38118     450.94249     160.90749     150.41822
     2  Cl(35)             0.00835       3.66150       1.30651       1.22134
 --------------------------------------------------------
       Center         ----  Spin Dipole Couplings  ----
                      3XX-RR        3YY-RR        3ZZ-RR
 --------------------------------------------------------
     1   Atom       -0.003027     -0.003027      0.006055
     2   Atom       -0.216880     -0.216880      0.433759
 --------------------------------------------------------
                        XY            XZ            YZ
 --------------------------------------------------------
     1   Atom        0.000000      0.000000      0.000000
     2   Atom        0.000000      0.000000      0.000000
 --------------------------------------------------------


 ---------------------------------------------------------------------------------
              Anisotropic Spin Dipole Couplings in Principal Axis System
 ---------------------------------------------------------------------------------

       Atom             a.u.   MegaHertz   Gauss  10(-4) cm-1        Axes

              Baa    -0.0030    -0.428    -0.153    -0.143  1.0000  0.0000  0.0000
     1 Na(23) Bbb    -0.0030    -0.428    -0.153    -0.143  0.0000  1.0000  0.0000
              Bcc     0.0061     0.855     0.305     0.285  0.0000  0.0000  1.0000
 
              Baa    -0.2169   -11.351    -4.050    -3.786  0.0000  1.0000  0.0000
     2 Cl(35) Bbb    -0.2169   -11.351    -4.050    -3.786  1.0000  0.0000  0.0000
              Bcc     0.4338    22.702     8.101     7.573  0.0000  0.0000  1.0000
 

 ---------------------------------------------------------------------------------

 No NMR shielding tensors so no spin-rotation constants.
 Leave Link  601 at Mon Oct 20 18:34:25 2025, MaxMem=    33554432 cpu:         1.0
 (Enter C:\G09W\l9999.exe)
 1|1|UNPC-ALEXHPENVY|SP|UB3LYP|3-21G|Cl1Na1(1-,2)|XC0RP|20-Oct-2025|0||
 #p b3lyp/3-21g||Title Card Required||-1,2|Na,0,0.,0.,6.|Cl,0,0.,0.,0.|
 |Version=IA32W-G09RevD.01|State=2-SG|HF=-619.336579|S2=0.751729|S2-1=0
 .|S2A=0.75|RMSD=1.093e-009|Dipole=0.,0.,2.2824992|Quadrupole=11.612631
 ,11.612631,-23.2252621,0.,0.,0.|PG=C*V [C*(Na1Cl1)]||@


 A MAN SHOULD NEVER BE ASHAMED TO OWN HE HAS BEEN IN THE WRONG
 WHICH IS BUT SAYING IN OTHER WORDS,
 THAT HE IS WISER TODAY THAN HE WAS YESTERDAY.

                          -- JONATHAN SWIFT
 Job cpu time:       0 days  0 hours  0 minutes  2.0 seconds.
 File lengths (MBytes):  RWF=      5 Int=      0 D2E=      0 Chk=      1 Scr=      1
 Normal termination of Gaussian 09 at Mon Oct 20 18:34:25 2025.
