 Entering Link 1 = C:\G09W\l1.exe PID=       496.
  
 Copyright (c) 1988,1990,1992,1993,1995,1998,2003,2009,2013,
            Gaussian, Inc.  All Rights Reserved.
  
 This is part of the Gaussian(R) 09 program.  It is based on
 the Gaussian(R) 03 system (copyright 2003, Gaussian, Inc.),
 the Gaussian(R) 98 system (copyright 1998, Gaussian, Inc.),
 the Gaussian(R) 94 system (copyright 1995, Gaussian, Inc.),
 the Gaussian 92(TM) system (copyright 1992, Gaussian, Inc.),
 the Gaussian 90(TM) system (copyright 1990, Gaussian, Inc.),
 the Gaussian 88(TM) system (copyright 1988, Gaussian, Inc.),
 the Gaussian 86(TM) system (copyright 1986, Carnegie Mellon
 University), and the Gaussian 82(TM) system (copyright 1983,
 Carnegie Mellon University). Gaussian is a federally registered
 trademark of Gaussian, Inc.
  
 This software contains proprietary and confidential information,
 including trade secrets, belonging to Gaussian, Inc.
  
 This software is provided under written license and may be
 used, copied, transmitted, or stored only in accord with that
 written license.
  
 The following legend is applicable only to US Government
 contracts under FAR:
  
                    RESTRICTED RIGHTS LEGEND
  
 Use, reproduction and disclosure by the US Government is
 subject to restrictions as set forth in subparagraphs (a)
 and (c) of the Commercial Computer Software - Restricted
 Rights clause in FAR 52.227-19.
  
 Gaussian, Inc.
 340 Quinnipiac St., Bldg. 40, Wallingford CT 06492
  
  
 ---------------------------------------------------------------
 Warning -- This program may not be used in any manner that
 competes with the business of Gaussian, Inc. or will provide
 assistance to any competitor of Gaussian, Inc.  The licensee
 of this program is prohibited from giving any competitor of
 Gaussian, Inc. access to this program.  By using this program,
 the user acknowledges that Gaussian, Inc. is engaged in the
 business of creating and licensing software in the field of
 computational chemistry and represents and warrants to the
 licensee that it is not a competitor of Gaussian, Inc. and that
 it will not use this program in any manner prohibited above.
 ---------------------------------------------------------------
  

 Cite this work as:
 Gaussian 09, Revision D.01,
 M. J. Frisch, G. W. Trucks, H. B. Schlegel, G. E. Scuseria, 
 M. A. Robb, J. R. Cheeseman, G. Scalmani, V. Barone, B. Mennucci, 
 G. A. Petersson, H. Nakatsuji, M. Caricato, X. Li, H. P. Hratchian, 
 A. F. Izmaylov, J. Bloino, G. Zheng, J. L. Sonnenberg, M. Hada, 
 M. Ehara, K. Toyota, R. Fukuda, J. Hasegawa, M. Ishida, T. Nakajima, 
 Y. Honda, O. Kitao, H. Nakai, T. Vreven, J. A. Montgomery, Jr., 
 J. E. Peralta, F. Ogliaro, M. Bearpark, J. J. Heyd, E. Brothers, 
 K. N. Kudin, V. N. Staroverov, T. Keith, R. Kobayashi, J. Normand, 
 K. Raghavachari, A. Rendell, J. C. Burant, S. S. Iyengar, J. Tomasi, 
 M. Cossi, N. Rega, J. M. Millam, M. Klene, J. E. Knox, J. B. Cross, 
 V. Bakken, C. Adamo, J. Jaramillo, R. Gomperts, R. E. Stratmann, 
 O. Yazyev, A. J. Austin, R. Cammi, C. Pomelli, J. W. Ochterski, 
 R. L. Martin, K. Morokuma, V. G. Zakrzewski, G. A. Voth, 
 P. Salvador, J. J. Dannenberg, S. Dapprich, A. D. Daniels, 
 O. Farkas, J. B. Foresman, J. V. Ortiz, J. Cioslowski, 
 and D. J. Fox, Gaussian, Inc., Wallingford CT, 2013.
 
 ******************************************
 Gaussian 09:  IA32W-G09RevD.01 24-Apr-2013
                20-Oct-2025 
 ******************************************
 %chk=C:\Users\Xc0rp\Desktop\quimica\NaCl-1_0.chk
 --------------
 #p b3lyp/3-21g
 --------------
 1/38=1/1;
 2/12=2,17=6,18=5,40=1/2;
 3/5=5,11=2,16=1,25=1,30=1,74=-5/1,2,3;
 4//1;
 5/5=2,38=5/2;
 6/7=2,8=2,9=2,10=2,28=1/1;
 99/5=1,9=1/99;
 Leave Link    1 at Mon Oct 20 18:34:17 2025, MaxMem=           0 cpu:         0.0
 (Enter C:\G09W\l101.exe)
 -------------------
 Title Card Required
 -------------------
 Symbolic Z-matrix:
 Charge = -1 Multiplicity = 2
 Na                    0.        0.        4.5 
 Cl                    0.        0.        0. 
 
 NAtoms=      2 NQM=        2 NQMF=       0 NMMI=      0 NMMIF=      0
                NMic=       0 NMicF=      0.
                    Isotopes and Nuclear Properties:
 (Nuclear quadrupole moments (NQMom) in fm**2, nuclear magnetic moments (NMagM)
  in nuclear magnetons)

  Atom         1           2
 IAtWgt=          23          35
 AtmWgt=  22.9897697  34.9688527
 NucSpn=           3           3
 AtZEff=   0.0000000   0.0000000
 NQMom=   10.4000000  -8.1650000
 NMagM=    2.2175200   0.8218740
 AtZNuc=  11.0000000  17.0000000
 Leave Link  101 at Mon Oct 20 18:34:17 2025, MaxMem=    33554432 cpu:         0.0
 (Enter C:\G09W\l202.exe)
                          Input orientation:                          
 ---------------------------------------------------------------------
 Center     Atomic      Atomic             Coordinates (Angstroms)
 Number     Number       Type             X           Y           Z
 ---------------------------------------------------------------------
      1         11           0        0.000000    0.000000    4.500000
      2         17           0        0.000000    0.000000    0.000000
 ---------------------------------------------------------------------
 Stoichiometry    ClNa(1-,2)
 Framework group  C*V[C*(NaCl)]
 Deg. of freedom     1
 Full point group                 C*V     NOp   4
 Largest Abelian subgroup         C2V     NOp   4
 Largest concise Abelian subgroup C1      NOp   1
                         Standard orientation:                         
 ---------------------------------------------------------------------
 Center     Atomic      Atomic             Coordinates (Angstroms)
 Number     Number       Type             X           Y           Z
 ---------------------------------------------------------------------
      1         11           0        0.000000    0.000000   -2.732143
      2         17           0        0.000000    0.000000    1.767857
 ---------------------------------------------------------------------
 Rotational constants (GHZ):      0.0000000      1.7992612      1.7992612
 Leave Link  202 at Mon Oct 20 18:34:17 2025, MaxMem=    33554432 cpu:         0.0
 (Enter C:\G09W\l301.exe)
 Standard basis: 3-21G (6D, 7F)
 Ernie: Thresh=  0.10000D-02 Tol=  0.10000D-05 Strict=F.
 There are    14 symmetry adapted cartesian basis functions of A1  symmetry.
 There are     0 symmetry adapted cartesian basis functions of A2  symmetry.
 There are     6 symmetry adapted cartesian basis functions of B1  symmetry.
 There are     6 symmetry adapted cartesian basis functions of B2  symmetry.
 There are    14 symmetry adapted basis functions of A1  symmetry.
 There are     0 symmetry adapted basis functions of A2  symmetry.
 There are     6 symmetry adapted basis functions of B1  symmetry.
 There are     6 symmetry adapted basis functions of B2  symmetry.
    26 basis functions,    54 primitive gaussians,    26 cartesian basis functions
    15 alpha electrons       14 beta electrons
       nuclear repulsion energy        21.9902528903 Hartrees.
 IExCor=  402 DFT=T Ex+Corr=B3LYP ExCW=0 ScaHFX=  0.200000
 ScaDFX=  0.800000  0.720000  1.000000  0.810000 ScalE2=  1.000000  1.000000
 IRadAn=      0 IRanWt=     -1 IRanGd=            0 ICorTp=0 IEmpDi=  4
 NAtoms=    2 NActive=    2 NUniq=    2 SFac= 1.00D+00 NAtFMM=   60 NAOKFM=F Big=F
 Integral buffers will be    262144 words long.
 Raffenetti 2 integral format.
 Two-electron integral symmetry is turned on.
 Leave Link  301 at Mon Oct 20 18:34:17 2025, MaxMem=    33554432 cpu:         0.0
 (Enter C:\G09W\l302.exe)
 NPDir=0 NMtPBC=     1 NCelOv=     1 NCel=       1 NClECP=     1 NCelD=      1
         NCelK=      1 NCelE2=     1 NClLst=     1 CellRange=     0.0.
 One-electron integrals computed using PRISM.
 NBasis=    26 RedAO= T EigKep=  2.10D-01  NBF=    14     0     6     6
 NBsUse=    26 1.00D-06 EigRej= -1.00D+00 NBFU=    14     0     6     6
 Precomputing XC quadrature grid using
 IXCGrd= 4 IRadAn=           0 IRanWt=          -1 IRanGd=           0 AccXCQ= 0.00D+00.
 Generated NRdTot=       0 NPtTot=           0 NUsed=           0 NTot=          16
 NSgBfM=    24    24    24    24    24 MxSgAt=     2 MxSgA2=     2.
 Leave Link  302 at Mon Oct 20 18:34:17 2025, MaxMem=    33554432 cpu:         0.0
 (Enter C:\G09W\l303.exe)
 DipDrv:  MaxL=1.
 Leave Link  303 at Mon Oct 20 18:34:17 2025, MaxMem=    33554432 cpu:         0.0
 (Enter C:\G09W\l401.exe)
 ExpMin= 2.44D-02 ExpMax= 1.38D+03 ExpMxC= 1.38D+03 IAcc=3 IRadAn=         5 AccDes= 0.00D+00
 Harris functional with IExCor=  402 and IRadAn=       5 diagonalized for initial guess.
 HarFok:  IExCor=  402 AccDes= 0.00D+00 IRadAn=         5 IDoV= 1 UseB2=F ITyADJ=14
 ICtDFT=  3500011 ScaDFX=  1.000000  1.000000  1.000000  1.000000
 FoFCou: FMM=F IPFlag=           0 FMFlag=      100000 FMFlg1=           0
         NFxFlg=           0 DoJE=T BraDBF=F KetDBF=T FulRan=T
         wScrn=  0.000000 ICntrl=     500 IOpCl=  0 I1Cent=   200000004 NGrid=           0
         NMat0=    1 NMatS0=      1 NMatT0=    0 NMatD0=    1 NMtDS0=    0 NMtDT0=    0
 Petite list used in FoFCou.
 Harris En= -619.358273484652    
 JPrj=0 DoOrth=F DoCkMO=F.
 Initial guess orbital symmetries:
 Alpha Orbitals:
       Occupied  (SG) (SG) (SG) (SG) (PI) (PI) (SG) (SG) (PI) (PI)
                 (SG) (SG) (PI) (PI) (SG)
       Virtual   (PI) (PI) (SG) (SG) (SG) (PI) (PI) (SG) (PI) (PI)
                 (SG)
 Beta  Orbitals:
       Occupied  (SG) (SG) (SG) (SG) (PI) (PI) (SG) (SG) (PI) (PI)
                 (SG) (SG) (PI) (PI)
       Virtual   (SG) (PI) (PI) (SG) (SG) (SG) (PI) (PI) (SG) (PI)
                 (PI) (SG)
 The electronic state of the initial guess is 2-SG.
 Initial guess <Sx>= 0.0000 <Sy>= 0.0000 <Sz>= 0.5000 <S**2>= 0.7500 S= 0.5000
 Leave Link  401 at Mon Oct 20 18:34:18 2025, MaxMem=    33554432 cpu:         0.0
 (Enter C:\G09W\l502.exe)
 UHF open shell SCF:
 Using DIIS extrapolation, IDIIS=  1040.
 Integral symmetry usage will be decided dynamically.
 Keep R1 and R2 ints in memory in symmetry-blocked form, NReq=939475.
 IVT=       20802 IEndB=       20802 NGot=    33554432 MDV=    33495249
 LenX=    33495249 LenY=    33494132
 Requested convergence on RMS density matrix=1.00D-08 within 128 cycles.
 Requested convergence on MAX density matrix=1.00D-06.
 Requested convergence on             energy=1.00D-06.
 No special actions if energy rises.
 FoFCou: FMM=F IPFlag=           0 FMFlag=           0 FMFlg1=           0
         NFxFlg=           0 DoJE=F BraDBF=F KetDBF=F FulRan=T
         wScrn=  0.000000 ICntrl=     600 IOpCl=  0 I1Cent=           0 NGrid=           0
         NMat0=    1 NMatS0=    351 NMatT0=    0 NMatD0=    1 NMtDS0=    0 NMtDT0=    0
 Petite list used in FoFCou.

 Cycle   1  Pass 1  IDiag  1:
 E= -619.309840929748    
 DIIS: error= 2.73D-02 at cycle   1 NSaved=   1.
 NSaved= 1 IEnMin= 1 EnMin= -619.309840929748     IErMin= 1 ErrMin= 2.73D-02
 ErrMax= 2.73D-02  0.00D+00 EMaxC= 1.00D-01 BMatC= 8.63D-02 BMatP= 8.63D-02
 IDIUse=3 WtCom= 7.27D-01 WtEn= 2.73D-01
 Coeff-Com:  0.100D+01
 Coeff-En:   0.100D+01
 Coeff:      0.100D+01
 Gap=     0.001 Goal=   None    Shift=    0.000
 Gap=     0.000 Goal=   None    Shift=    0.000
 GapD=    0.000 DampG=0.250 DampE=0.500 DampFc=0.2500 IDamp=-1.
 Damping current iteration by 2.50D-01
 RMSDP=4.24D-02 MaxDP=4.02D-01              OVMax= 7.52D-03

 Cycle   2  Pass 1  IDiag  1:
 E= -619.271175667436     Delta-E=        0.038665262311 Rises=F Damp=T
 DIIS: error= 1.25D-02 at cycle   2 NSaved=   2.
 NSaved= 2 IEnMin= 1 EnMin= -619.309840929748     IErMin= 2 ErrMin= 1.25D-02
 ErrMax= 1.25D-02  0.00D+00 EMaxC= 1.00D-01 BMatC= 1.82D-02 BMatP= 8.63D-02
 IDIUse=3 WtCom= 8.75D-01 WtEn= 1.25D-01
 Coeff-Com:  0.177D+00 0.823D+00
 Coeff-En:   0.776D+00 0.224D+00
 Coeff:      0.252D+00 0.748D+00
 Gap=     0.054 Goal=   None    Shift=    0.000
 Gap=    -0.104 Goal=   None    Shift=    0.000
 RMSDP=1.10D-02 MaxDP=1.46D-01 DE= 3.87D-02 OVMax= 0.00D+00

 Cycle   3  Pass 1  IDiag  1:
 E= -619.339655331903     Delta-E=       -0.068479664467 Rises=F Damp=F
 DIIS: error= 9.52D-03 at cycle   3 NSaved=   3.
 NSaved= 3 IEnMin= 3 EnMin= -619.339655331903     IErMin= 3 ErrMin= 9.52D-03
 ErrMax= 9.52D-03  0.00D+00 EMaxC= 1.00D-01 BMatC= 1.47D-02 BMatP= 1.82D-02
 IDIUse=3 WtCom= 9.05D-01 WtEn= 9.52D-02
 Coeff-Com: -0.353D+00 0.379D+00 0.974D+00
 Coeff-En:   0.000D+00 0.000D+00 0.100D+01
 Coeff:     -0.320D+00 0.343D+00 0.977D+00
 Gap=     0.094 Goal=   None    Shift=    0.000
 Gap=     0.080 Goal=   None    Shift=    0.000
 RMSDP=3.33D-03 MaxDP=4.11D-02 DE=-6.85D-02 OVMax= 0.00D+00

 Cycle   4  Pass 1  IDiag  1:
 E= -619.346680987614     Delta-E=       -0.007025655711 Rises=F Damp=F
 DIIS: error= 4.00D-03 at cycle   4 NSaved=   4.
 NSaved= 4 IEnMin= 4 EnMin= -619.346680987614     IErMin= 4 ErrMin= 4.00D-03
 ErrMax= 4.00D-03  0.00D+00 EMaxC= 1.00D-01 BMatC= 2.78D-03 BMatP= 1.47D-02
 IDIUse=3 WtCom= 9.60D-01 WtEn= 4.00D-02
 Coeff-Com: -0.784D-01 0.878D-01-0.369D+00 0.136D+01
 Coeff-En:   0.000D+00 0.000D+00 0.000D+00 0.100D+01
 Coeff:     -0.753D-01 0.843D-01-0.354D+00 0.135D+01
 Gap=     0.098 Goal=   None    Shift=    0.000
 Gap=     0.064 Goal=   None    Shift=    0.000
 RMSDP=2.67D-03 MaxDP=3.80D-02 DE=-7.03D-03 OVMax= 0.00D+00

 Cycle   5  Pass 1  IDiag  1:
 E= -619.348690982891     Delta-E=       -0.002009995277 Rises=F Damp=F
 DIIS: error= 5.49D-04 at cycle   5 NSaved=   5.
 NSaved= 5 IEnMin= 5 EnMin= -619.348690982891     IErMin= 5 ErrMin= 5.49D-04
 ErrMax= 5.49D-04  0.00D+00 EMaxC= 1.00D-01 BMatC= 5.59D-05 BMatP= 2.78D-03
 IDIUse=3 WtCom= 9.95D-01 WtEn= 5.49D-03
 Coeff-Com:  0.164D-01-0.104D-01 0.943D-01-0.494D+00 0.139D+01
 Coeff-En:   0.000D+00 0.000D+00 0.000D+00 0.000D+00 0.100D+01
 Coeff:      0.164D-01-0.104D-01 0.938D-01-0.491D+00 0.139D+01
 Gap=     0.098 Goal=   None    Shift=    0.000
 Gap=     0.064 Goal=   None    Shift=    0.000
 RMSDP=9.28D-04 MaxDP=9.51D-03 DE=-2.01D-03 OVMax= 0.00D+00

 Cycle   6  Pass 1  IDiag  1:
 E= -619.348776379842     Delta-E=       -0.000085396951 Rises=F Damp=F
 DIIS: error= 3.56D-04 at cycle   6 NSaved=   6.
 NSaved= 6 IEnMin= 6 EnMin= -619.348776379842     IErMin= 6 ErrMin= 3.56D-04
 ErrMax= 3.56D-04  0.00D+00 EMaxC= 1.00D-01 BMatC= 1.77D-05 BMatP= 5.59D-05
 IDIUse=3 WtCom= 9.96D-01 WtEn= 3.56D-03
 Coeff-Com:  0.833D-03-0.493D-02-0.292D-01 0.195D+00-0.341D+00 0.118D+01
 Coeff-En:   0.000D+00 0.000D+00 0.000D+00 0.000D+00 0.000D+00 0.100D+01
 Coeff:      0.830D-03-0.491D-02-0.291D-01 0.194D+00-0.340D+00 0.118D+01
 Gap=     0.098 Goal=   None    Shift=    0.000
 Gap=     0.065 Goal=   None    Shift=    0.000
 RMSDP=1.85D-04 MaxDP=3.09D-03 DE=-8.54D-05 OVMax= 0.00D+00

 Cycle   7  Pass 1  IDiag  1:
 E= -619.348785589515     Delta-E=       -0.000009209673 Rises=F Damp=F
 DIIS: error= 1.14D-04 at cycle   7 NSaved=   7.
 NSaved= 7 IEnMin= 7 EnMin= -619.348785589515     IErMin= 7 ErrMin= 1.14D-04
 ErrMax= 1.14D-04  0.00D+00 EMaxC= 1.00D-01 BMatC= 1.73D-06 BMatP= 1.77D-05
 IDIUse=3 WtCom= 9.99D-01 WtEn= 1.14D-03
 Coeff-Com:  0.581D-03-0.279D-04-0.327D-02-0.863D-03 0.975D-02-0.526D+00
 Coeff-Com:  0.152D+01
 Coeff-En:   0.000D+00 0.000D+00 0.000D+00 0.000D+00 0.000D+00 0.000D+00
 Coeff-En:   0.100D+01
 Coeff:      0.580D-03-0.279D-04-0.327D-02-0.862D-03 0.974D-02-0.525D+00
 Coeff:      0.152D+01
 Gap=     0.098 Goal=   None    Shift=    0.000
 Gap=     0.066 Goal=   None    Shift=    0.000
 RMSDP=8.03D-05 MaxDP=1.12D-03 DE=-9.21D-06 OVMax= 0.00D+00

 Cycle   8  Pass 1  IDiag  1:
 E= -619.348786605299     Delta-E=       -0.000001015784 Rises=F Damp=F
 DIIS: error= 4.56D-06 at cycle   8 NSaved=   8.
 NSaved= 8 IEnMin= 8 EnMin= -619.348786605299     IErMin= 8 ErrMin= 4.56D-06
 ErrMax= 4.56D-06  0.00D+00 EMaxC= 1.00D-01 BMatC= 2.08D-09 BMatP= 1.73D-06
 IDIUse=1 WtCom= 1.00D+00 WtEn= 0.00D+00
 Coeff-Com: -0.344D-04 0.453D-04 0.814D-03-0.398D-02 0.108D-01 0.539D-01
 Coeff-Com: -0.176D+00 0.111D+01
 Coeff:     -0.344D-04 0.453D-04 0.814D-03-0.398D-02 0.108D-01 0.539D-01
 Coeff:     -0.176D+00 0.111D+01
 Gap=     0.098 Goal=   None    Shift=    0.000
 Gap=     0.066 Goal=   None    Shift=    0.000
 RMSDP=6.21D-06 MaxDP=9.19D-05 DE=-1.02D-06 OVMax= 0.00D+00

 Cycle   9  Pass 1  IDiag  1:
 E= -619.348786608134     Delta-E=       -0.000000002835 Rises=F Damp=F
 DIIS: error= 1.38D-06 at cycle   9 NSaved=   9.
 NSaved= 9 IEnMin= 9 EnMin= -619.348786608134     IErMin= 9 ErrMin= 1.38D-06
 ErrMax= 1.38D-06  0.00D+00 EMaxC= 1.00D-01 BMatC= 2.67D-10 BMatP= 2.08D-09
 IDIUse=1 WtCom= 1.00D+00 WtEn= 0.00D+00
 Coeff-Com: -0.124D-04 0.201D-05-0.930D-04 0.584D-03-0.195D-02 0.329D-02
 Coeff-Com:  0.993D-03-0.155D+00 0.115D+01
 Coeff:     -0.124D-04 0.201D-05-0.930D-04 0.584D-03-0.195D-02 0.329D-02
 Coeff:      0.993D-03-0.155D+00 0.115D+01
 Gap=     0.098 Goal=   None    Shift=    0.000
 Gap=     0.066 Goal=   None    Shift=    0.000
 RMSDP=9.72D-07 MaxDP=1.42D-05 DE=-2.84D-09 OVMax= 0.00D+00

 Cycle  10  Pass 1  IDiag  1:
 E= -619.348786608272     Delta-E=       -0.000000000138 Rises=F Damp=F
 DIIS: error= 5.33D-08 at cycle  10 NSaved=  10.
 NSaved=10 IEnMin=10 EnMin= -619.348786608272     IErMin=10 ErrMin= 5.33D-08
 ErrMax= 5.33D-08  0.00D+00 EMaxC= 1.00D-01 BMatC= 1.97D-13 BMatP= 2.67D-10
 IDIUse=1 WtCom= 1.00D+00 WtEn= 0.00D+00
 Coeff-Com:  0.127D-06 0.523D-06 0.207D-05 0.103D-04-0.781D-04-0.138D-02
 Coeff-Com:  0.295D-02 0.453D-03-0.135D+00 0.113D+01
 Coeff:      0.127D-06 0.523D-06 0.207D-05 0.103D-04-0.781D-04-0.138D-02
 Coeff:      0.295D-02 0.453D-03-0.135D+00 0.113D+01
 Gap=     0.098 Goal=   None    Shift=    0.000
 Gap=     0.066 Goal=   None    Shift=    0.000
 RMSDP=9.57D-08 MaxDP=1.06D-06 DE=-1.38D-10 OVMax= 0.00D+00

 Cycle  11  Pass 1  IDiag  1:
 E= -619.348786608272     Delta-E=       -0.000000000001 Rises=F Damp=F
 DIIS: error= 6.36D-09 at cycle  11 NSaved=  11.
 NSaved=11 IEnMin=11 EnMin= -619.348786608272     IErMin=11 ErrMin= 6.36D-09
 ErrMax= 6.36D-09  0.00D+00 EMaxC= 1.00D-01 BMatC= 3.15D-15 BMatP= 1.97D-13
 IDIUse=1 WtCom= 1.00D+00 WtEn= 0.00D+00
 Coeff-Com: -0.539D-07-0.462D-07 0.432D-06-0.442D-05 0.207D-04 0.290D-03
 Coeff-Com: -0.774D-03 0.234D-02 0.116D-01-0.206D+00 0.119D+01
 Coeff:     -0.539D-07-0.462D-07 0.432D-06-0.442D-05 0.207D-04 0.290D-03
 Coeff:     -0.774D-03 0.234D-02 0.116D-01-0.206D+00 0.119D+01
 Gap=     0.098 Goal=   None    Shift=    0.000
 Gap=     0.066 Goal=   None    Shift=    0.000
 RMSDP=1.29D-08 MaxDP=1.19D-07 DE=-6.82D-13 OVMax= 0.00D+00

 Cycle  12  Pass 1  IDiag  1:
 E= -619.348786608273     Delta-E=        0.000000000000 Rises=F Damp=F
 DIIS: error= 5.44D-10 at cycle  12 NSaved=  12.
 NSaved=12 IEnMin=12 EnMin= -619.348786608273     IErMin=12 ErrMin= 5.44D-10
 ErrMax= 5.44D-10  0.00D+00 EMaxC= 1.00D-01 BMatC= 1.48D-17 BMatP= 3.15D-15
 IDIUse=1 WtCom= 1.00D+00 WtEn= 0.00D+00
 Coeff-Com:  0.261D-08 0.234D-09-0.761D-07 0.215D-06-0.340D-08-0.928D-05
 Coeff-Com:  0.289D-04-0.193D-03 0.229D-03 0.628D-02-0.805D-01 0.107D+01
 Coeff:      0.261D-08 0.234D-09-0.761D-07 0.215D-06-0.340D-08-0.928D-05
 Coeff:      0.289D-04-0.193D-03 0.229D-03 0.628D-02-0.805D-01 0.107D+01
 Gap=     0.098 Goal=   None    Shift=    0.000
 Gap=     0.066 Goal=   None    Shift=    0.000
 RMSDP=8.66D-10 MaxDP=7.95D-09 DE=-4.55D-13 OVMax= 0.00D+00

 SCF Done:  E(UB3LYP) =  -619.348786608     A.U. after   12 cycles
            NFock= 12  Conv=0.87D-09     -V/T= 2.0041
 <Sx>= 0.0000 <Sy>= 0.0000 <Sz>= 0.5000 <S**2>= 0.7505 S= 0.5003
 <L.S>= 0.000000000000E+00
 KE= 6.168185756870D+02 PE=-1.527284437434D+03 EE= 2.691268222482D+02
 Annihilation of the first spin contaminant:
 S**2 before annihilation     0.7505,   after     0.7500
 Leave Link  502 at Mon Oct 20 18:34:19 2025, MaxMem=    33554432 cpu:         1.0
 (Enter C:\G09W\l601.exe)
 Copying SCF densities to generalized density rwf, IOpCl= 1 IROHF=0.

 **********************************************************************

            Population analysis using the SCF density.

 **********************************************************************

 Orbital symmetries:
 Alpha Orbitals:
       Occupied  (SG) (SG) (SG) (SG) (PI) (PI) (SG) (PI) (PI) (SG)
                 (SG) (SG) (PI) (PI) (SG)
       Virtual   (PI) (PI) (SG) (SG) (PI) (PI) (SG) (SG) (PI) (PI)
                 (SG)
 Beta  Orbitals:
       Occupied  (SG) (SG) (SG) (SG) (PI) (PI) (SG) (PI) (PI) (SG)
                 (SG) (SG) (PI) (PI)
       Virtual   (SG) (PI) (PI) (SG) (SG) (PI) (PI) (SG) (SG) (PI)
                 (PI) (SG)
 The electronic state is 2-SG.
 Alpha  occ. eigenvalues -- -100.49427 -38.11496  -9.05824  -6.82666  -6.82474
 Alpha  occ. eigenvalues --   -6.82474  -2.09016  -1.01608  -1.01608  -1.01512
 Alpha  occ. eigenvalues --   -0.47494  -0.03051  -0.02283  -0.02283  -0.01360
 Alpha virt. eigenvalues --    0.08421   0.08421   0.10829   0.16615   0.18638
 Alpha virt. eigenvalues --    0.18638   0.20953   0.77618   0.85488   0.85488
 Alpha virt. eigenvalues --    0.86963
  Beta  occ. eigenvalues -- -100.49401 -38.11377  -9.05799  -6.82581  -6.82460
  Beta  occ. eigenvalues --   -6.82460  -2.08783  -1.01465  -1.01465  -1.01350
  Beta  occ. eigenvalues --   -0.47316  -0.02514  -0.02232  -0.02232
  Beta virt. eigenvalues --    0.04327   0.09670   0.09670   0.11959   0.17950
  Beta virt. eigenvalues --    0.19900   0.19900   0.21737   0.77685   0.85515
  Beta virt. eigenvalues --    0.85515   0.87160
          Condensed to atoms (all electrons):
               1          2
     1  Na  11.095561   0.060955
     2  Cl   0.060955  17.782530
          Atomic-Atomic Spin Densities.
               1          2
     1  Na   0.970338  -0.005658
     2  Cl  -0.005658   0.040978
 Mulliken charges and spin densities:
               1          2
     1  Na  -0.156515   0.964680
     2  Cl  -0.843485   0.035320
 Sum of Mulliken charges =  -1.00000   1.00000
 Mulliken charges and spin densities with hydrogens summed into heavy atoms:
               1          2
     1  Na  -0.156515   0.964680
     2  Cl  -0.843485   0.035320
 Electronic spatial extent (au):  <R**2>=            576.6801
 Charge=             -1.0000 electrons
 Dipole moment (field-independent basis, Debye):
    X=              0.0000    Y=              0.0000    Z=             -2.3791  Tot=              2.3791
 Quadrupole moment (field-independent basis, Debye-Ang):
   XX=            -29.6987   YY=            -29.6987   ZZ=            -66.6666
   XY=              0.0000   XZ=              0.0000   YZ=              0.0000
 Traceless Quadrupole moment (field-independent basis, Debye-Ang):
   XX=             12.3226   YY=             12.3226   ZZ=            -24.6453
   XY=              0.0000   XZ=              0.0000   YZ=              0.0000
 Octapole moment (field-independent basis, Debye-Ang**2):
  XXX=              0.0000  YYY=              0.0000  ZZZ=            144.2651  XYY=              0.0000
  XXY=              0.0000  XXZ=             20.0649  XZZ=              0.0000  YZZ=              0.0000
  YYZ=             20.0649  XYZ=              0.0000
 Hexadecapole moment (field-independent basis, Debye-Ang**3):
 XXXX=           -100.8679 YYYY=           -100.8679 ZZZZ=          -1724.1605 XXXY=              0.0000
 XXXZ=              0.0000 YYYX=              0.0000 YYYZ=              0.0000 ZZZX=              0.0000
 ZZZY=              0.0000 XXYY=            -33.6226 XXZZ=           -231.7930 YYZZ=           -231.7930
 XXYZ=              0.0000 YYXZ=              0.0000 ZZXY=              0.0000
 N-N= 2.199025289030D+01 E-N=-1.527284437477D+03  KE= 6.168185756870D+02
 Symmetry A1   KE= 5.043265780143D+02
 Symmetry A2   KE= 0.000000000000D+00
 Symmetry B1   KE= 5.624599883639D+01
 Symmetry B2   KE= 5.624599883628D+01
                          Isotropic Fermi Contact Couplings
        Atom                 a.u.       MegaHertz       Gauss      10(-4) cm-1
     1  Na(23)             0.35752     422.96051     150.92282     141.08444
     2  Cl(35)             0.00610       2.67397       0.95414       0.89194
 --------------------------------------------------------
       Center         ----  Spin Dipole Couplings  ----
                      3XX-RR        3YY-RR        3ZZ-RR
 --------------------------------------------------------
     1   Atom       -0.007958     -0.007958      0.015916
     2   Atom       -0.111253     -0.111253      0.222505
 --------------------------------------------------------
                        XY            XZ            YZ
 --------------------------------------------------------
     1   Atom        0.000000      0.000000      0.000000
     2   Atom        0.000000      0.000000      0.000000
 --------------------------------------------------------


 ---------------------------------------------------------------------------------
              Anisotropic Spin Dipole Couplings in Principal Axis System
 ---------------------------------------------------------------------------------

       Atom             a.u.   MegaHertz   Gauss  10(-4) cm-1        Axes

              Baa    -0.0080    -1.124    -0.401    -0.375  0.0000  1.0000  0.0000
     1 Na(23) Bbb    -0.0080    -1.124    -0.401    -0.375  1.0000  0.0000  0.0000
              Bcc     0.0159     2.248     0.802     0.750  0.0000  0.0000  1.0000
 
              Baa    -0.1113    -5.823    -2.078    -1.942  0.0000  1.0000  0.0000
     2 Cl(35) Bbb    -0.1113    -5.823    -2.078    -1.942  1.0000  0.0000  0.0000
              Bcc     0.2225    11.645     4.155     3.884  0.0000  0.0000  1.0000
 

 ---------------------------------------------------------------------------------

 No NMR shielding tensors so no spin-rotation constants.
 Leave Link  601 at Mon Oct 20 18:34:19 2025, MaxMem=    33554432 cpu:         0.0
 (Enter C:\G09W\l9999.exe)
 1|1|UNPC-ALEXHPENVY|SP|UB3LYP|3-21G|Cl1Na1(1-,2)|XC0RP|20-Oct-2025|0||
 #p b3lyp/3-21g||Title Card Required||-1,2|Na,0,0.,0.,4.5|Cl,0,0.,0.,0.
 ||Version=IA32W-G09RevD.01|State=2-SG|HF=-619.3487866|S2=0.750519|S2-1
 =0.|S2A=0.75|RMSD=8.657e-010|Dipole=0.,0.,0.9360029|Quadrupole=9.16157
 45,9.1615745,-18.3231489,0.,0.,0.|PG=C*V [C*(Na1Cl1)]||@


 A MAN SHOULD NEVER BE ASHAMED TO OWN HE HAS BEEN IN THE WRONG
 WHICH IS BUT SAYING IN OTHER WORDS,
 THAT HE IS WISER TODAY THAN HE WAS YESTERDAY.

                          -- JONATHAN SWIFT
 Job cpu time:       0 days  0 hours  0 minutes  2.0 seconds.
 File lengths (MBytes):  RWF=      5 Int=      0 D2E=      0 Chk=      1 Scr=      1
 Normal termination of Gaussian 09 at Mon Oct 20 18:34:19 2025.
