 Entering Link 1 = C:\G09W\l1.exe PID=     21556.
  
 Copyright (c) 1988,1990,1992,1993,1995,1998,2003,2009,2013,
            Gaussian, Inc.  All Rights Reserved.
  
 This is part of the Gaussian(R) 09 program.  It is based on
 the Gaussian(R) 03 system (copyright 2003, Gaussian, Inc.),
 the Gaussian(R) 98 system (copyright 1998, Gaussian, Inc.),
 the Gaussian(R) 94 system (copyright 1995, Gaussian, Inc.),
 the Gaussian 92(TM) system (copyright 1992, Gaussian, Inc.),
 the Gaussian 90(TM) system (copyright 1990, Gaussian, Inc.),
 the Gaussian 88(TM) system (copyright 1988, Gaussian, Inc.),
 the Gaussian 86(TM) system (copyright 1986, Carnegie Mellon
 University), and the Gaussian 82(TM) system (copyright 1983,
 Carnegie Mellon University). Gaussian is a federally registered
 trademark of Gaussian, Inc.
  
 This software contains proprietary and confidential information,
 including trade secrets, belonging to Gaussian, Inc.
  
 This software is provided under written license and may be
 used, copied, transmitted, or stored only in accord with that
 written license.
  
 The following legend is applicable only to US Government
 contracts under FAR:
  
                    RESTRICTED RIGHTS LEGEND
  
 Use, reproduction and disclosure by the US Government is
 subject to restrictions as set forth in subparagraphs (a)
 and (c) of the Commercial Computer Software - Restricted
 Rights clause in FAR 52.227-19.
  
 Gaussian, Inc.
 340 Quinnipiac St., Bldg. 40, Wallingford CT 06492
  
  
 ---------------------------------------------------------------
 Warning -- This program may not be used in any manner that
 competes with the business of Gaussian, Inc. or will provide
 assistance to any competitor of Gaussian, Inc.  The licensee
 of this program is prohibited from giving any competitor of
 Gaussian, Inc. access to this program.  By using this program,
 the user acknowledges that Gaussian, Inc. is engaged in the
 business of creating and licensing software in the field of
 computational chemistry and represents and warrants to the
 licensee that it is not a competitor of Gaussian, Inc. and that
 it will not use this program in any manner prohibited above.
 ---------------------------------------------------------------
  

 Cite this work as:
 Gaussian 09, Revision D.01,
 M. J. Frisch, G. W. Trucks, H. B. Schlegel, G. E. Scuseria, 
 M. A. Robb, J. R. Cheeseman, G. Scalmani, V. Barone, B. Mennucci, 
 G. A. Petersson, H. Nakatsuji, M. Caricato, X. Li, H. P. Hratchian, 
 A. F. Izmaylov, J. Bloino, G. Zheng, J. L. Sonnenberg, M. Hada, 
 M. Ehara, K. Toyota, R. Fukuda, J. Hasegawa, M. Ishida, T. Nakajima, 
 Y. Honda, O. Kitao, H. Nakai, T. Vreven, J. A. Montgomery, Jr., 
 J. E. Peralta, F. Ogliaro, M. Bearpark, J. J. Heyd, E. Brothers, 
 K. N. Kudin, V. N. Staroverov, T. Keith, R. Kobayashi, J. Normand, 
 K. Raghavachari, A. Rendell, J. C. Burant, S. S. Iyengar, J. Tomasi, 
 M. Cossi, N. Rega, J. M. Millam, M. Klene, J. E. Knox, J. B. Cross, 
 V. Bakken, C. Adamo, J. Jaramillo, R. Gomperts, R. E. Stratmann, 
 O. Yazyev, A. J. Austin, R. Cammi, C. Pomelli, J. W. Ochterski, 
 R. L. Martin, K. Morokuma, V. G. Zakrzewski, G. A. Voth, 
 P. Salvador, J. J. Dannenberg, S. Dapprich, A. D. Daniels, 
 O. Farkas, J. B. Foresman, J. V. Ortiz, J. Cioslowski, 
 and D. J. Fox, Gaussian, Inc., Wallingford CT, 2013.
 
 ******************************************
 Gaussian 09:  IA32W-G09RevD.01 24-Apr-2013
                20-Oct-2025 
 ******************************************
 %chk=C:\Users\Xc0rp\Desktop\quimica\NaCl-1_0.chk
 --------------
 #p b3lyp/3-21g
 --------------
 1/38=1/1;
 2/12=2,17=6,18=5,40=1/2;
 3/5=5,11=2,16=1,25=1,30=1,74=-5/1,2,3;
 4//1;
 5/5=2,38=5/2;
 6/7=2,8=2,9=2,10=2,28=1/1;
 99/5=1,9=1/99;
 Leave Link    1 at Mon Oct 20 18:34:21 2025, MaxMem=           0 cpu:         0.0
 (Enter C:\G09W\l101.exe)
 -------------------
 Title Card Required
 -------------------
 Symbolic Z-matrix:
 Charge = -1 Multiplicity = 2
 Na                    0.        0.        5.5 
 Cl                    0.        0.        0. 
 
 NAtoms=      2 NQM=        2 NQMF=       0 NMMI=      0 NMMIF=      0
                NMic=       0 NMicF=      0.
                    Isotopes and Nuclear Properties:
 (Nuclear quadrupole moments (NQMom) in fm**2, nuclear magnetic moments (NMagM)
  in nuclear magnetons)

  Atom         1           2
 IAtWgt=          23          35
 AtmWgt=  22.9897697  34.9688527
 NucSpn=           3           3
 AtZEff=   0.0000000   0.0000000
 NQMom=   10.4000000  -8.1650000
 NMagM=    2.2175200   0.8218740
 AtZNuc=  11.0000000  17.0000000
 Leave Link  101 at Mon Oct 20 18:34:21 2025, MaxMem=    33554432 cpu:         0.0
 (Enter C:\G09W\l202.exe)
                          Input orientation:                          
 ---------------------------------------------------------------------
 Center     Atomic      Atomic             Coordinates (Angstroms)
 Number     Number       Type             X           Y           Z
 ---------------------------------------------------------------------
      1         11           0        0.000000    0.000000    5.500000
      2         17           0        0.000000    0.000000    0.000000
 ---------------------------------------------------------------------
 Stoichiometry    ClNa(1-,2)
 Framework group  C*V[C*(NaCl)]
 Deg. of freedom     1
 Full point group                 C*V     NOp   4
 Largest Abelian subgroup         C2V     NOp   4
 Largest concise Abelian subgroup C1      NOp   1
                         Standard orientation:                         
 ---------------------------------------------------------------------
 Center     Atomic      Atomic             Coordinates (Angstroms)
 Number     Number       Type             X           Y           Z
 ---------------------------------------------------------------------
      1         11           0        0.000000    0.000000   -3.339286
      2         17           0        0.000000    0.000000    2.160714
 ---------------------------------------------------------------------
 Rotational constants (GHZ):      0.0000000      1.2044641      1.2044641
 Leave Link  202 at Mon Oct 20 18:34:21 2025, MaxMem=    33554432 cpu:         0.0
 (Enter C:\G09W\l301.exe)
 Standard basis: 3-21G (6D, 7F)
 Ernie: Thresh=  0.10000D-02 Tol=  0.10000D-05 Strict=F.
 There are    14 symmetry adapted cartesian basis functions of A1  symmetry.
 There are     0 symmetry adapted cartesian basis functions of A2  symmetry.
 There are     6 symmetry adapted cartesian basis functions of B1  symmetry.
 There are     6 symmetry adapted cartesian basis functions of B2  symmetry.
 There are    14 symmetry adapted basis functions of A1  symmetry.
 There are     0 symmetry adapted basis functions of A2  symmetry.
 There are     6 symmetry adapted basis functions of B1  symmetry.
 There are     6 symmetry adapted basis functions of B2  symmetry.
    26 basis functions,    54 primitive gaussians,    26 cartesian basis functions
    15 alpha electrons       14 beta electrons
       nuclear repulsion energy        17.9920250921 Hartrees.
 IExCor=  402 DFT=T Ex+Corr=B3LYP ExCW=0 ScaHFX=  0.200000
 ScaDFX=  0.800000  0.720000  1.000000  0.810000 ScalE2=  1.000000  1.000000
 IRadAn=      0 IRanWt=     -1 IRanGd=            0 ICorTp=0 IEmpDi=  4
 NAtoms=    2 NActive=    2 NUniq=    2 SFac= 1.00D+00 NAtFMM=   60 NAOKFM=F Big=F
 Integral buffers will be    262144 words long.
 Raffenetti 2 integral format.
 Two-electron integral symmetry is turned on.
 Leave Link  301 at Mon Oct 20 18:34:21 2025, MaxMem=    33554432 cpu:         0.0
 (Enter C:\G09W\l302.exe)
 NPDir=0 NMtPBC=     1 NCelOv=     1 NCel=       1 NClECP=     1 NCelD=      1
         NCelK=      1 NCelE2=     1 NClLst=     1 CellRange=     0.0.
 One-electron integrals computed using PRISM.
 NBasis=    26 RedAO= T EigKep=  2.28D-01  NBF=    14     0     6     6
 NBsUse=    26 1.00D-06 EigRej= -1.00D+00 NBFU=    14     0     6     6
 Precomputing XC quadrature grid using
 IXCGrd= 4 IRadAn=           0 IRanWt=          -1 IRanGd=           0 AccXCQ= 0.00D+00.
 Generated NRdTot=       0 NPtTot=           0 NUsed=           0 NTot=          16
 NSgBfM=    21    21    21    21    21 MxSgAt=     2 MxSgA2=     2.
 Leave Link  302 at Mon Oct 20 18:34:21 2025, MaxMem=    33554432 cpu:         0.0
 (Enter C:\G09W\l303.exe)
 DipDrv:  MaxL=1.
 Leave Link  303 at Mon Oct 20 18:34:21 2025, MaxMem=    33554432 cpu:         0.0
 (Enter C:\G09W\l401.exe)
 ExpMin= 2.44D-02 ExpMax= 1.38D+03 ExpMxC= 1.38D+03 IAcc=3 IRadAn=         5 AccDes= 0.00D+00
 Harris functional with IExCor=  402 and IRadAn=       5 diagonalized for initial guess.
 HarFok:  IExCor=  402 AccDes= 0.00D+00 IRadAn=         5 IDoV= 1 UseB2=F ITyADJ=14
 ICtDFT=  3500011 ScaDFX=  1.000000  1.000000  1.000000  1.000000
 FoFCou: FMM=F IPFlag=           0 FMFlag=      100000 FMFlg1=           0
         NFxFlg=           0 DoJE=T BraDBF=F KetDBF=T FulRan=T
         wScrn=  0.000000 ICntrl=     500 IOpCl=  0 I1Cent=   200000004 NGrid=           0
         NMat0=    1 NMatS0=      1 NMatT0=    0 NMatD0=    1 NMtDS0=    0 NMtDT0=    0
 Petite list used in FoFCou.
 Harris En= -619.357571923738    
 JPrj=0 DoOrth=F DoCkMO=F.
 Initial guess orbital symmetries:
 Alpha Orbitals:
       Occupied  (SG) (SG) (SG) (SG) (PI) (PI) (SG) (SG) (PI) (PI)
                 (SG) (SG) (PI) (PI) (SG)
       Virtual   (PI) (PI) (SG) (SG) (SG) (PI) (PI) (SG) (PI) (PI)
                 (SG)
 Beta  Orbitals:
       Occupied  (SG) (SG) (SG) (SG) (PI) (PI) (SG) (SG) (PI) (PI)
                 (SG) (SG) (PI) (PI)
       Virtual   (SG) (PI) (PI) (SG) (SG) (SG) (PI) (PI) (SG) (PI)
                 (PI) (SG)
 The electronic state of the initial guess is 2-SG.
 Initial guess <Sx>= 0.0000 <Sy>= 0.0000 <Sz>= 0.5000 <S**2>= 0.7500 S= 0.5000
 Leave Link  401 at Mon Oct 20 18:34:21 2025, MaxMem=    33554432 cpu:         0.0
 (Enter C:\G09W\l502.exe)
 UHF open shell SCF:
 Using DIIS extrapolation, IDIIS=  1040.
 Integral symmetry usage will be decided dynamically.
 Keep R1 and R2 ints in memory in symmetry-blocked form, NReq=939475.
 IVT=       20802 IEndB=       20802 NGot=    33554432 MDV=    33495249
 LenX=    33495249 LenY=    33494132
 Requested convergence on RMS density matrix=1.00D-08 within 128 cycles.
 Requested convergence on MAX density matrix=1.00D-06.
 Requested convergence on             energy=1.00D-06.
 No special actions if energy rises.
 FoFCou: FMM=F IPFlag=           0 FMFlag=           0 FMFlg1=           0
         NFxFlg=           0 DoJE=F BraDBF=F KetDBF=F FulRan=T
         wScrn=  0.000000 ICntrl=     600 IOpCl=  0 I1Cent=           0 NGrid=           0
         NMat0=    1 NMatS0=    351 NMatT0=    0 NMatD0=    1 NMtDS0=    0 NMtDT0=    0
 Petite list used in FoFCou.

 Cycle   1  Pass 1  IDiag  1:
 E= -619.305030711412    
 DIIS: error= 3.16D-02 at cycle   1 NSaved=   1.
 NSaved= 1 IEnMin= 1 EnMin= -619.305030711412     IErMin= 1 ErrMin= 3.16D-02
 ErrMax= 3.16D-02  0.00D+00 EMaxC= 1.00D-01 BMatC= 8.62D-02 BMatP= 8.62D-02
 IDIUse=3 WtCom= 6.84D-01 WtEn= 3.16D-01
 Coeff-Com:  0.100D+01
 Coeff-En:   0.100D+01
 Coeff:      0.100D+01
 Gap=    -0.022 Goal=   None    Shift=    0.000
 Gap=     0.000 Goal=   None    Shift=    0.000
 GapD=   -0.022 DampG=0.250 DampE=0.500 DampFc=0.2500 IDamp=-1.
 Damping current iteration by 2.50D-01
 RMSDP=5.43D-02 MaxDP=5.58D-01              OVMax= 7.54D-03

 Cycle   2  Pass 1  IDiag  1:
 E= -619.156164747409     Delta-E=        0.148865964004 Rises=F Damp=T
 DIIS: error= 2.31D-02 at cycle   2 NSaved=   2.
 NSaved= 2 IEnMin= 1 EnMin= -619.305030711412     IErMin= 2 ErrMin= 2.31D-02
 ErrMax= 2.31D-02  0.00D+00 EMaxC= 1.00D-01 BMatC= 4.86D-02 BMatP= 8.62D-02
 IDIUse=3 WtCom= 7.69D-01 WtEn= 2.31D-01
 Coeff-Com:  0.402D+00 0.598D+00
 Coeff-En:   0.889D+00 0.111D+00
 Coeff:      0.515D+00 0.485D+00
 Gap=    -0.145 Goal=   None    Shift=    0.000
 Gap=    -0.107 Goal=   None    Shift=    0.000
 RMSDP=1.38D-02 MaxDP=1.40D-01 DE= 1.49D-01 OVMax= 1.01D-03

 Cycle   3  Pass 1  IDiag  1:
 E= -619.330548952684     Delta-E=       -0.174384205276 Rises=F Damp=F
 DIIS: error= 1.11D-02 at cycle   3 NSaved=   3.
 NSaved= 3 IEnMin= 3 EnMin= -619.330548952684     IErMin= 3 ErrMin= 1.11D-02
 ErrMax= 1.11D-02  0.00D+00 EMaxC= 1.00D-01 BMatC= 1.42D-02 BMatP= 4.86D-02
 IDIUse=3 WtCom= 8.89D-01 WtEn= 1.11D-01
 Coeff-Com: -0.294D+00 0.252D+00 0.104D+01
 Coeff-En:   0.000D+00 0.000D+00 0.100D+01
 Coeff:     -0.261D+00 0.224D+00 0.104D+01
 Gap=     0.096 Goal=   None    Shift=    0.000
 Gap=     0.069 Goal=   None    Shift=    0.000
 RMSDP=3.31D-03 MaxDP=4.96D-02 DE=-1.74D-01 OVMax= 0.00D+00

 Cycle   4  Pass 1  IDiag  1:
 E= -619.336199427177     Delta-E=       -0.005650474493 Rises=F Damp=F
 DIIS: error= 6.02D-03 at cycle   4 NSaved=   4.
 NSaved= 4 IEnMin= 4 EnMin= -619.336199427177     IErMin= 4 ErrMin= 6.02D-03
 ErrMax= 6.02D-03  0.00D+00 EMaxC= 1.00D-01 BMatC= 4.31D-03 BMatP= 1.42D-02
 IDIUse=3 WtCom= 9.40D-01 WtEn= 6.02D-02
 Coeff-Com: -0.684D-01 0.790D-01-0.616D+00 0.161D+01
 Coeff-En:   0.000D+00 0.000D+00 0.000D+00 0.100D+01
 Coeff:     -0.643D-01 0.743D-01-0.579D+00 0.157D+01
 Gap=     0.083 Goal=   None    Shift=    0.000
 Gap=     0.041 Goal=   None    Shift=    0.000
 RMSDP=3.24D-03 MaxDP=4.37D-02 DE=-5.65D-03 OVMax= 0.00D+00

 Cycle   5  Pass 1  IDiag  1:
 E= -619.338827722807     Delta-E=       -0.002628295630 Rises=F Damp=F
 DIIS: error= 1.54D-03 at cycle   5 NSaved=   5.
 NSaved= 5 IEnMin= 5 EnMin= -619.338827722807     IErMin= 5 ErrMin= 1.54D-03
 ErrMax= 1.54D-03  0.00D+00 EMaxC= 1.00D-01 BMatC= 3.08D-04 BMatP= 4.31D-03
 IDIUse=3 WtCom= 9.85D-01 WtEn= 1.54D-02
 Coeff-Com:  0.168D-02 0.348D-02 0.338D+00-0.105D+01 0.171D+01
 Coeff-En:   0.000D+00 0.000D+00 0.000D+00 0.000D+00 0.100D+01
 Coeff:      0.166D-02 0.342D-02 0.333D+00-0.103D+01 0.170D+01
 Gap=     0.076 Goal=   None    Shift=    0.000
 Gap=     0.032 Goal=   None    Shift=    0.000
 RMSDP=2.46D-03 MaxDP=2.85D-02 DE=-2.63D-03 OVMax= 0.00D+00

 Cycle   6  Pass 1  IDiag  1:
 E= -619.339280273397     Delta-E=       -0.000452550590 Rises=F Damp=F
 DIIS: error= 7.70D-04 at cycle   6 NSaved=   6.
 NSaved= 6 IEnMin= 6 EnMin= -619.339280273397     IErMin= 6 ErrMin= 7.70D-04
 ErrMax= 7.70D-04  0.00D+00 EMaxC= 1.00D-01 BMatC= 7.13D-05 BMatP= 3.08D-04
 IDIUse=3 WtCom= 9.92D-01 WtEn= 7.70D-03
 Coeff-Com: -0.950D-03 0.267D-04-0.111D+00 0.391D+00-0.250D+00 0.971D+00
 Coeff-En:   0.000D+00 0.000D+00 0.000D+00 0.000D+00 0.000D+00 0.100D+01
 Coeff:     -0.942D-03 0.265D-04-0.110D+00 0.388D+00-0.248D+00 0.971D+00
 Gap=     0.081 Goal=   None    Shift=    0.000
 Gap=     0.035 Goal=   None    Shift=    0.000
 RMSDP=5.17D-04 MaxDP=6.71D-03 DE=-4.53D-04 OVMax= 0.00D+00

 Cycle   7  Pass 1  IDiag  1:
 E= -619.339326239825     Delta-E=       -0.000045966428 Rises=F Damp=F
 DIIS: error= 3.05D-04 at cycle   7 NSaved=   7.
 NSaved= 7 IEnMin= 7 EnMin= -619.339326239825     IErMin= 7 ErrMin= 3.05D-04
 ErrMax= 3.05D-04  0.00D+00 EMaxC= 1.00D-01 BMatC= 9.04D-06 BMatP= 7.13D-05
 IDIUse=3 WtCom= 9.97D-01 WtEn= 3.05D-03
 Coeff-Com:  0.738D-03 0.430D-03 0.112D-01-0.397D-01-0.942D-01-0.109D+01
 Coeff-Com:  0.221D+01
 Coeff-En:   0.000D+00 0.000D+00 0.000D+00 0.000D+00 0.000D+00 0.000D+00
 Coeff-En:   0.100D+01
 Coeff:      0.736D-03 0.429D-03 0.112D-01-0.396D-01-0.940D-01-0.109D+01
 Coeff:      0.221D+01
 Gap=     0.085 Goal=   None    Shift=    0.000
 Gap=     0.037 Goal=   None    Shift=    0.000
 RMSDP=6.39D-04 MaxDP=6.31D-03 DE=-4.60D-05 OVMax= 0.00D+00

 Cycle   8  Pass 1  IDiag  1:
 E= -619.339338995733     Delta-E=       -0.000012755908 Rises=F Damp=F
 DIIS: error= 4.03D-05 at cycle   8 NSaved=   8.
 NSaved= 8 IEnMin= 8 EnMin= -619.339338995733     IErMin= 8 ErrMin= 4.03D-05
 ErrMax= 4.03D-05  0.00D+00 EMaxC= 1.00D-01 BMatC= 1.71D-07 BMatP= 9.04D-06
 IDIUse=1 WtCom= 1.00D+00 WtEn= 0.00D+00
 Coeff-Com: -0.363D-03 0.216D-03 0.678D-02-0.254D-01 0.654D-01 0.203D+00
 Coeff-Com: -0.393D+00 0.114D+01
 Coeff:     -0.363D-03 0.216D-03 0.678D-02-0.254D-01 0.654D-01 0.203D+00
 Coeff:     -0.393D+00 0.114D+01
 Gap=     0.084 Goal=   None    Shift=    0.000
 Gap=     0.037 Goal=   None    Shift=    0.000
 RMSDP=1.05D-04 MaxDP=9.89D-04 DE=-1.28D-05 OVMax= 0.00D+00

 Cycle   9  Pass 1  IDiag  1:
 E= -619.339339217516     Delta-E=       -0.000000221783 Rises=F Damp=F
 DIIS: error= 3.16D-05 at cycle   9 NSaved=   9.
 NSaved= 9 IEnMin= 9 EnMin= -619.339339217516     IErMin= 9 ErrMin= 3.16D-05
 ErrMax= 3.16D-05  0.00D+00 EMaxC= 1.00D-01 BMatC= 1.38D-07 BMatP= 1.71D-07
 IDIUse=1 WtCom= 1.00D+00 WtEn= 0.00D+00
 Coeff-Com: -0.432D-04-0.295D-04 0.288D-03-0.131D-02-0.508D-02 0.509D-01
 Coeff-Com: -0.667D-01 0.184D+00 0.838D+00
 Coeff:     -0.432D-04-0.295D-04 0.288D-03-0.131D-02-0.508D-02 0.509D-01
 Coeff:     -0.667D-01 0.184D+00 0.838D+00
 Gap=     0.084 Goal=   None    Shift=    0.000
 Gap=     0.037 Goal=   None    Shift=    0.000
 RMSDP=2.72D-05 MaxDP=2.89D-04 DE=-2.22D-07 OVMax= 0.00D+00

 Cycle  10  Pass 1  IDiag  1:
 E= -619.339339311670     Delta-E=       -0.000000094154 Rises=F Damp=F
 DIIS: error= 1.58D-06 at cycle  10 NSaved=  10.
 NSaved=10 IEnMin=10 EnMin= -619.339339311670     IErMin=10 ErrMin= 1.58D-06
 ErrMax= 1.58D-06  0.00D+00 EMaxC= 1.00D-01 BMatC= 2.15D-10 BMatP= 1.38D-07
 IDIUse=1 WtCom= 1.00D+00 WtEn= 0.00D+00
 Coeff-Com: -0.795D-06 0.414D-05-0.503D-03 0.134D-02-0.857D-03-0.491D-02
 Coeff-Com:  0.103D-01-0.514D-01-0.502D-01 0.110D+01
 Coeff:     -0.795D-06 0.414D-05-0.503D-03 0.134D-02-0.857D-03-0.491D-02
 Coeff:      0.103D-01-0.514D-01-0.502D-01 0.110D+01
 Gap=     0.084 Goal=   None    Shift=    0.000
 Gap=     0.037 Goal=   None    Shift=    0.000
 RMSDP=3.97D-06 MaxDP=3.73D-05 DE=-9.42D-08 OVMax= 0.00D+00

 Cycle  11  Pass 1  IDiag  1:
 E= -619.339339312055     Delta-E=       -0.000000000385 Rises=F Damp=F
 DIIS: error= 2.29D-07 at cycle  11 NSaved=  11.
 NSaved=11 IEnMin=11 EnMin= -619.339339312055     IErMin=11 ErrMin= 2.29D-07
 ErrMax= 2.29D-07  0.00D+00 EMaxC= 1.00D-01 BMatC= 3.03D-12 BMatP= 2.15D-10
 IDIUse=1 WtCom= 1.00D+00 WtEn= 0.00D+00
 Coeff-Com: -0.141D-05 0.247D-06 0.412D-04-0.393D-04-0.708D-05-0.253D-03
 Coeff-Com: -0.530D-03 0.408D-02-0.114D-01-0.118D+00 0.113D+01
 Coeff:     -0.141D-05 0.247D-06 0.412D-04-0.393D-04-0.708D-05-0.253D-03
 Coeff:     -0.530D-03 0.408D-02-0.114D-01-0.118D+00 0.113D+01
 Gap=     0.084 Goal=   None    Shift=    0.000
 Gap=     0.037 Goal=   None    Shift=    0.000
 RMSDP=7.72D-07 MaxDP=7.07D-06 DE=-3.85D-10 OVMax= 0.00D+00

 Cycle  12  Pass 1  IDiag  1:
 E= -619.339339312082     Delta-E=       -0.000000000027 Rises=F Damp=F
 DIIS: error= 1.01D-07 at cycle  12 NSaved=  12.
 NSaved=12 IEnMin=12 EnMin= -619.339339312082     IErMin=12 ErrMin= 1.01D-07
 ErrMax= 1.01D-07  0.00D+00 EMaxC= 1.00D-01 BMatC= 1.36D-12 BMatP= 3.03D-12
 IDIUse=1 WtCom= 1.00D+00 WtEn= 0.00D+00
 Coeff-Com:  0.222D-06-0.123D-06-0.222D-05 0.863D-05-0.434D-04 0.608D-04
 Coeff-Com: -0.849D-04 0.566D-03 0.477D-02-0.140D-01-0.125D+00 0.113D+01
 Coeff:      0.222D-06-0.123D-06-0.222D-05 0.863D-05-0.434D-04 0.608D-04
 Coeff:     -0.849D-04 0.566D-03 0.477D-02-0.140D-01-0.125D+00 0.113D+01
 Gap=     0.084 Goal=   None    Shift=    0.000
 Gap=     0.037 Goal=   None    Shift=    0.000
 RMSDP=1.13D-07 MaxDP=1.27D-06 DE=-2.67D-11 OVMax= 0.00D+00

 Cycle  13  Pass 1  IDiag  1:
 E= -619.339339312082     Delta-E=        0.000000000000 Rises=F Damp=F
 DIIS: error= 9.94D-09 at cycle  13 NSaved=  13.
 NSaved=13 IEnMin=13 EnMin= -619.339339312082     IErMin=13 ErrMin= 9.94D-09
 ErrMax= 9.94D-09  0.00D+00 EMaxC= 1.00D-01 BMatC= 9.79D-15 BMatP= 1.36D-12
 IDIUse=1 WtCom= 1.00D+00 WtEn= 0.00D+00
 Coeff-Com:  0.216D-07 0.485D-08 0.726D-06-0.245D-05 0.391D-05-0.201D-04
 Coeff-Com:  0.478D-04-0.186D-03-0.117D-03 0.107D-02 0.187D-01-0.170D+00
 Coeff-Com:  0.115D+01
 Coeff:      0.216D-07 0.485D-08 0.726D-06-0.245D-05 0.391D-05-0.201D-04
 Coeff:      0.478D-04-0.186D-03-0.117D-03 0.107D-02 0.187D-01-0.170D+00
 Coeff:      0.115D+01
 Gap=     0.084 Goal=   None    Shift=    0.000
 Gap=     0.037 Goal=   None    Shift=    0.000
 RMSDP=2.27D-08 MaxDP=2.17D-07 DE=-2.27D-13 OVMax= 0.00D+00

 Cycle  14  Pass 1  IDiag  1:
 E= -619.339339312081     Delta-E=        0.000000000001 Rises=F Damp=F
 DIIS: error= 3.42D-10 at cycle  14 NSaved=  14.
 NSaved=14 IEnMin=13 EnMin= -619.339339312082     IErMin=14 ErrMin= 3.42D-10
 ErrMax= 3.42D-10  0.00D+00 EMaxC= 1.00D-01 BMatC= 1.16D-17 BMatP= 9.79D-15
 IDIUse=1 WtCom= 1.00D+00 WtEn= 0.00D+00
 Coeff-Com: -0.479D-09-0.395D-09-0.279D-07 0.600D-07-0.180D-07 0.226D-05
 Coeff-Com: -0.504D-05 0.199D-04-0.625D-05-0.158D-03-0.119D-02 0.110D-01
 Coeff-Com: -0.960D-01 0.109D+01
 Coeff:     -0.479D-09-0.395D-09-0.279D-07 0.600D-07-0.180D-07 0.226D-05
 Coeff:     -0.504D-05 0.199D-04-0.625D-05-0.158D-03-0.119D-02 0.110D-01
 Coeff:     -0.960D-01 0.109D+01
 Gap=     0.084 Goal=   None    Shift=    0.000
 Gap=     0.037 Goal=   None    Shift=    0.000
 RMSDP=2.67D-10 MaxDP=4.22D-09 DE= 6.82D-13 OVMax= 0.00D+00

 SCF Done:  E(UB3LYP) =  -619.339339312     A.U. after   14 cycles
            NFock= 14  Conv=0.27D-09     -V/T= 2.0040
 <Sx>= 0.0000 <Sy>= 0.0000 <Sz>= 0.5000 <S**2>= 0.7511 S= 0.5005
 <L.S>= 0.000000000000E+00
 KE= 6.168492251488D+02 PE=-1.519327482792D+03 EE= 2.651468932393D+02
 Annihilation of the first spin contaminant:
 S**2 before annihilation     0.7511,   after     0.7500
 Leave Link  502 at Mon Oct 20 18:34:22 2025, MaxMem=    33554432 cpu:         1.0
 (Enter C:\G09W\l601.exe)
 Copying SCF densities to generalized density rwf, IOpCl= 1 IROHF=0.

 **********************************************************************

            Population analysis using the SCF density.

 **********************************************************************

 Orbital symmetries:
 Alpha Orbitals:
       Occupied  (SG) (SG) (SG) (SG) (PI) (PI) (SG) (PI) (PI) (SG)
                 (SG) (SG) (SG) (PI) (PI)
       Virtual   (PI) (PI) (SG) (SG) (PI) (PI) (SG) (SG) (PI) (PI)
                 (SG)
 Beta  Orbitals:
       Occupied  (SG) (SG) (SG) (SG) (PI) (PI) (SG) (PI) (PI) (SG)
                 (SG) (PI) (PI) (SG)
       Virtual   (SG) (PI) (PI) (SG) (SG) (PI) (PI) (SG) (SG) (PI)
                 (PI) (SG)
 The electronic state is 2-SG.
 Alpha  occ. eigenvalues -- -100.48277 -38.12981  -9.04698  -6.81573  -6.81354
 Alpha  occ. eigenvalues --   -6.81354  -2.10524  -1.03095  -1.03095  -1.03044
 Alpha  occ. eigenvalues --   -0.46521  -0.03129  -0.01750  -0.01323  -0.01323
 Alpha virt. eigenvalues --    0.07102   0.07102   0.08867   0.15151   0.17342
 Alpha virt. eigenvalues --    0.17342   0.19766   0.76813   0.86172   0.86172
 Alpha virt. eigenvalues --    0.87155
  Beta  occ. eigenvalues -- -100.48238 -38.12856  -9.04661  -6.81450  -6.81332
  Beta  occ. eigenvalues --   -6.81332  -2.10278  -1.02944  -1.02944  -1.02883
  Beta  occ. eigenvalues --   -0.46245  -0.01232  -0.01232  -0.01202
  Beta virt. eigenvalues --    0.02470   0.08386   0.08386   0.10175   0.16472
  Beta virt. eigenvalues --    0.18508   0.18508   0.20386   0.76918   0.86222
  Beta virt. eigenvalues --    0.86222   0.87421
          Condensed to atoms (all electrons):
               1          2
     1  Na  11.096631   0.036863
     2  Cl   0.036863  17.829644
          Atomic-Atomic Spin Densities.
               1          2
     1  Na   0.946667  -0.003651
     2  Cl  -0.003651   0.060635
 Mulliken charges and spin densities:
               1          2
     1  Na  -0.133494   0.943016
     2  Cl  -0.866506   0.056984
 Sum of Mulliken charges =  -1.00000   1.00000
 Mulliken charges and spin densities with hydrogens summed into heavy atoms:
               1          2
     1  Na  -0.133494   0.943016
     2  Cl  -0.866506   0.056984
 Electronic spatial extent (au):  <R**2>=            818.5756
 Charge=             -1.0000 electrons
 Dipole moment (field-independent basis, Debye):
    X=              0.0000    Y=              0.0000    Z=             -4.9700  Tot=              4.9700
 Quadrupole moment (field-independent basis, Debye-Ang):
   XX=            -29.2725   YY=            -29.2725   ZZ=            -72.0911
   XY=              0.0000   XZ=              0.0000   YZ=              0.0000
 Traceless Quadrupole moment (field-independent basis, Debye-Ang):
   XX=             14.2729   YY=             14.2729   ZZ=            -28.5457
   XY=              0.0000   XZ=              0.0000   YZ=              0.0000
 Octapole moment (field-independent basis, Debye-Ang**2):
  XXX=              0.0000  YYY=              0.0000  ZZZ=            135.0316  XYY=              0.0000
  XXY=              0.0000  XXZ=             18.9232  XZZ=              0.0000  YZZ=              0.0000
  YYZ=             18.9232  XYZ=              0.0000
 Hexadecapole moment (field-independent basis, Debye-Ang**3):
 XXXX=            -94.6669 YYYY=            -94.6669 ZZZZ=          -2292.6274 XXXY=              0.0000
 XXXZ=              0.0000 YYYX=              0.0000 YYYZ=              0.0000 ZZZX=              0.0000
 ZZZY=              0.0000 XXYY=            -31.5556 XXZZ=           -293.9893 YYZZ=           -293.9893
 XXYZ=              0.0000 YYXZ=              0.0000 ZZXY=              0.0000
 N-N= 1.799202509206D+01 E-N=-1.519327482774D+03  KE= 6.168492251488D+02
 Symmetry A1   KE= 5.043336395439D+02
 Symmetry A2   KE= 0.000000000000D+00
 Symmetry B1   KE= 5.625779280245D+01
 Symmetry B2   KE= 5.625779280248D+01
                          Isotropic Fermi Contact Couplings
        Atom                 a.u.       MegaHertz       Gauss      10(-4) cm-1
     1  Na(23)             0.38181     451.69407     161.17567     150.66892
     2  Cl(35)             0.00644       2.82404       1.00769       0.94200
 --------------------------------------------------------
       Center         ----  Spin Dipole Couplings  ----
                      3XX-RR        3YY-RR        3ZZ-RR
 --------------------------------------------------------
     1   Atom       -0.004285     -0.004285      0.008571
     2   Atom       -0.156842     -0.156842      0.313685
 --------------------------------------------------------
                        XY            XZ            YZ
 --------------------------------------------------------
     1   Atom        0.000000      0.000000      0.000000
     2   Atom        0.000000      0.000000      0.000000
 --------------------------------------------------------


 ---------------------------------------------------------------------------------
              Anisotropic Spin Dipole Couplings in Principal Axis System
 ---------------------------------------------------------------------------------

       Atom             a.u.   MegaHertz   Gauss  10(-4) cm-1        Axes

              Baa    -0.0043    -0.605    -0.216    -0.202  0.0000  1.0000  0.0000
     1 Na(23) Bbb    -0.0043    -0.605    -0.216    -0.202  1.0000  0.0000  0.0000
              Bcc     0.0086     1.210     0.432     0.404  0.0000  0.0000  1.0000
 
              Baa    -0.1568    -8.209    -2.929    -2.738  1.0000  0.0000  0.0000
     2 Cl(35) Bbb    -0.1568    -8.209    -2.929    -2.738  0.0000  1.0000  0.0000
              Bcc     0.3137    16.418     5.858     5.476  0.0000  0.0000  1.0000
 

 ---------------------------------------------------------------------------------

 No NMR shielding tensors so no spin-rotation constants.
 Leave Link  601 at Mon Oct 20 18:34:23 2025, MaxMem=    33554432 cpu:         1.0
 (Enter C:\G09W\l9999.exe)
 1|1|UNPC-ALEXHPENVY|SP|UB3LYP|3-21G|Cl1Na1(1-,2)|XC0RP|20-Oct-2025|0||
 #p b3lyp/3-21g||Title Card Required||-1,2|Na,0,0.,0.,5.5|Cl,0,0.,0.,0.
 ||Version=IA32W-G09RevD.01|State=2-SG|HF=-619.3393393|S2=0.751061|S2-1
 =0.|S2A=0.75|RMSD=2.671e-010|Dipole=0.,0.,1.9553547|Quadrupole=10.6115
 203,10.6115203,-21.2230405,0.,0.,0.|PG=C*V [C*(Na1Cl1)]||@


 A MAN SHOULD NEVER BE ASHAMED TO OWN HE HAS BEEN IN THE WRONG
 WHICH IS BUT SAYING IN OTHER WORDS,
 THAT HE IS WISER TODAY THAN HE WAS YESTERDAY.

                          -- JONATHAN SWIFT
 Job cpu time:       0 days  0 hours  0 minutes  2.0 seconds.
 File lengths (MBytes):  RWF=      5 Int=      0 D2E=      0 Chk=      1 Scr=      1
 Normal termination of Gaussian 09 at Mon Oct 20 18:34:23 2025.
