 Entering Link 1 = C:\G09W\l1.exe PID=     10100.
  
 Copyright (c) 1988,1990,1992,1993,1995,1998,2003,2009,2013,
            Gaussian, Inc.  All Rights Reserved.
  
 This is part of the Gaussian(R) 09 program.  It is based on
 the Gaussian(R) 03 system (copyright 2003, Gaussian, Inc.),
 the Gaussian(R) 98 system (copyright 1998, Gaussian, Inc.),
 the Gaussian(R) 94 system (copyright 1995, Gaussian, Inc.),
 the Gaussian 92(TM) system (copyright 1992, Gaussian, Inc.),
 the Gaussian 90(TM) system (copyright 1990, Gaussian, Inc.),
 the Gaussian 88(TM) system (copyright 1988, Gaussian, Inc.),
 the Gaussian 86(TM) system (copyright 1986, Carnegie Mellon
 University), and the Gaussian 82(TM) system (copyright 1983,
 Carnegie Mellon University). Gaussian is a federally registered
 trademark of Gaussian, Inc.
  
 This software contains proprietary and confidential information,
 including trade secrets, belonging to Gaussian, Inc.
  
 This software is provided under written license and may be
 used, copied, transmitted, or stored only in accord with that
 written license.
  
 The following legend is applicable only to US Government
 contracts under FAR:
  
                    RESTRICTED RIGHTS LEGEND
  
 Use, reproduction and disclosure by the US Government is
 subject to restrictions as set forth in subparagraphs (a)
 and (c) of the Commercial Computer Software - Restricted
 Rights clause in FAR 52.227-19.
  
 Gaussian, Inc.
 340 Quinnipiac St., Bldg. 40, Wallingford CT 06492
  
  
 ---------------------------------------------------------------
 Warning -- This program may not be used in any manner that
 competes with the business of Gaussian, Inc. or will provide
 assistance to any competitor of Gaussian, Inc.  The licensee
 of this program is prohibited from giving any competitor of
 Gaussian, Inc. access to this program.  By using this program,
 the user acknowledges that Gaussian, Inc. is engaged in the
 business of creating and licensing software in the field of
 computational chemistry and represents and warrants to the
 licensee that it is not a competitor of Gaussian, Inc. and that
 it will not use this program in any manner prohibited above.
 ---------------------------------------------------------------
  

 Cite this work as:
 Gaussian 09, Revision D.01,
 M. J. Frisch, G. W. Trucks, H. B. Schlegel, G. E. Scuseria, 
 M. A. Robb, J. R. Cheeseman, G. Scalmani, V. Barone, B. Mennucci, 
 G. A. Petersson, H. Nakatsuji, M. Caricato, X. Li, H. P. Hratchian, 
 A. F. Izmaylov, J. Bloino, G. Zheng, J. L. Sonnenberg, M. Hada, 
 M. Ehara, K. Toyota, R. Fukuda, J. Hasegawa, M. Ishida, T. Nakajima, 
 Y. Honda, O. Kitao, H. Nakai, T. Vreven, J. A. Montgomery, Jr., 
 J. E. Peralta, F. Ogliaro, M. Bearpark, J. J. Heyd, E. Brothers, 
 K. N. Kudin, V. N. Staroverov, T. Keith, R. Kobayashi, J. Normand, 
 K. Raghavachari, A. Rendell, J. C. Burant, S. S. Iyengar, J. Tomasi, 
 M. Cossi, N. Rega, J. M. Millam, M. Klene, J. E. Knox, J. B. Cross, 
 V. Bakken, C. Adamo, J. Jaramillo, R. Gomperts, R. E. Stratmann, 
 O. Yazyev, A. J. Austin, R. Cammi, C. Pomelli, J. W. Ochterski, 
 R. L. Martin, K. Morokuma, V. G. Zakrzewski, G. A. Voth, 
 P. Salvador, J. J. Dannenberg, S. Dapprich, A. D. Daniels, 
 O. Farkas, J. B. Foresman, J. V. Ortiz, J. Cioslowski, 
 and D. J. Fox, Gaussian, Inc., Wallingford CT, 2013.
 
 ******************************************
 Gaussian 09:  IA32W-G09RevD.01 24-Apr-2013
                20-Oct-2025 
 ******************************************
 %chk=C:\Users\Xc0rp\Desktop\quimica\NaCl-1_0.chk
 --------------
 #p b3lyp/3-21g
 --------------
 1/38=1/1;
 2/12=2,17=6,18=5,40=1/2;
 3/5=5,11=2,16=1,25=1,30=1,74=-5/1,2,3;
 4//1;
 5/5=2,38=5/2;
 6/7=2,8=2,9=2,10=2,28=1/1;
 99/5=1,9=1/99;
 Leave Link    1 at Mon Oct 20 18:34:05 2025, MaxMem=           0 cpu:         0.0
 (Enter C:\G09W\l101.exe)
 -------------------
 Title Card Required
 -------------------
 Symbolic Z-matrix:
 Charge = -1 Multiplicity = 2
 Na                    0.        0.        1.75 
 Cl                    0.        0.        0. 
 
 NAtoms=      2 NQM=        2 NQMF=       0 NMMI=      0 NMMIF=      0
                NMic=       0 NMicF=      0.
                    Isotopes and Nuclear Properties:
 (Nuclear quadrupole moments (NQMom) in fm**2, nuclear magnetic moments (NMagM)
  in nuclear magnetons)

  Atom         1           2
 IAtWgt=          23          35
 AtmWgt=  22.9897697  34.9688527
 NucSpn=           3           3
 AtZEff=   0.0000000   0.0000000
 NQMom=   10.4000000  -8.1650000
 NMagM=    2.2175200   0.8218740
 AtZNuc=  11.0000000  17.0000000
 Leave Link  101 at Mon Oct 20 18:34:05 2025, MaxMem=    33554432 cpu:         0.0
 (Enter C:\G09W\l202.exe)
                          Input orientation:                          
 ---------------------------------------------------------------------
 Center     Atomic      Atomic             Coordinates (Angstroms)
 Number     Number       Type             X           Y           Z
 ---------------------------------------------------------------------
      1         11           0        0.000000    0.000000    1.750000
      2         17           0        0.000000    0.000000    0.000000
 ---------------------------------------------------------------------
 Stoichiometry    ClNa(1-,2)
 Framework group  C*V[C*(NaCl)]
 Deg. of freedom     1
 Full point group                 C*V     NOp   4
 Largest Abelian subgroup         C2V     NOp   4
 Largest concise Abelian subgroup C1      NOp   1
                         Standard orientation:                         
 ---------------------------------------------------------------------
 Center     Atomic      Atomic             Coordinates (Angstroms)
 Number     Number       Type             X           Y           Z
 ---------------------------------------------------------------------
      1         11           0        0.000000    0.000000   -1.062500
      2         17           0        0.000000    0.000000    0.687500
 ---------------------------------------------------------------------
 Rotational constants (GHZ):      0.0000000     11.8971558     11.8971558
 Leave Link  202 at Mon Oct 20 18:34:05 2025, MaxMem=    33554432 cpu:         0.0
 (Enter C:\G09W\l301.exe)
 Standard basis: 3-21G (6D, 7F)
 Ernie: Thresh=  0.10000D-02 Tol=  0.10000D-05 Strict=F.
 There are    14 symmetry adapted cartesian basis functions of A1  symmetry.
 There are     0 symmetry adapted cartesian basis functions of A2  symmetry.
 There are     6 symmetry adapted cartesian basis functions of B1  symmetry.
 There are     6 symmetry adapted cartesian basis functions of B2  symmetry.
 There are    14 symmetry adapted basis functions of A1  symmetry.
 There are     0 symmetry adapted basis functions of A2  symmetry.
 There are     6 symmetry adapted basis functions of B1  symmetry.
 There are     6 symmetry adapted basis functions of B2  symmetry.
    26 basis functions,    54 primitive gaussians,    26 cartesian basis functions
    15 alpha electrons       14 beta electrons
       nuclear repulsion energy        56.5463645750 Hartrees.



 Warning!  Cl atom    2 may be hypervalent but has no d functions.



 IExCor=  402 DFT=T Ex+Corr=B3LYP ExCW=0 ScaHFX=  0.200000
 ScaDFX=  0.800000  0.720000  1.000000  0.810000 ScalE2=  1.000000  1.000000
 IRadAn=      0 IRanWt=     -1 IRanGd=            0 ICorTp=0 IEmpDi=  4
 NAtoms=    2 NActive=    2 NUniq=    2 SFac= 1.00D+00 NAtFMM=   60 NAOKFM=F Big=F
 Integral buffers will be    262144 words long.
 Raffenetti 2 integral format.
 Two-electron integral symmetry is turned on.
 Leave Link  301 at Mon Oct 20 18:34:05 2025, MaxMem=    33554432 cpu:         0.0
 (Enter C:\G09W\l302.exe)
 NPDir=0 NMtPBC=     1 NCelOv=     1 NCel=       1 NClECP=     1 NCelD=      1
         NCelK=      1 NCelE2=     1 NClLst=     1 CellRange=     0.0.
 One-electron integrals computed using PRISM.
 NBasis=    26 RedAO= T EigKep=  7.21D-02  NBF=    14     0     6     6
 NBsUse=    26 1.00D-06 EigRej= -1.00D+00 NBFU=    14     0     6     6
 Precomputing XC quadrature grid using
 IXCGrd= 4 IRadAn=           0 IRanWt=          -1 IRanGd=           0 AccXCQ= 0.00D+00.
 Generated NRdTot=       0 NPtTot=           0 NUsed=           0 NTot=          16
 NSgBfM=    25    25    25    25    25 MxSgAt=     2 MxSgA2=     2.
 Leave Link  302 at Mon Oct 20 18:34:05 2025, MaxMem=    33554432 cpu:         0.0
 (Enter C:\G09W\l303.exe)
 DipDrv:  MaxL=1.
 Leave Link  303 at Mon Oct 20 18:34:05 2025, MaxMem=    33554432 cpu:         0.0
 (Enter C:\G09W\l401.exe)
 ExpMin= 2.44D-02 ExpMax= 1.38D+03 ExpMxC= 1.38D+03 IAcc=3 IRadAn=         5 AccDes= 0.00D+00
 Harris functional with IExCor=  402 and IRadAn=       5 diagonalized for initial guess.
 HarFok:  IExCor=  402 AccDes= 0.00D+00 IRadAn=         5 IDoV= 1 UseB2=F ITyADJ=14
 ICtDFT=  3500011 ScaDFX=  1.000000  1.000000  1.000000  1.000000
 FoFCou: FMM=F IPFlag=           0 FMFlag=      100000 FMFlg1=           0
         NFxFlg=           0 DoJE=T BraDBF=F KetDBF=T FulRan=T
         wScrn=  0.000000 ICntrl=     500 IOpCl=  0 I1Cent=   200000004 NGrid=           0
         NMat0=    1 NMatS0=      1 NMatT0=    0 NMatD0=    1 NMtDS0=    0 NMtDT0=    0
 Petite list used in FoFCou.
 Harris En= -619.224500494881    
 JPrj=0 DoOrth=F DoCkMO=F.
 Initial guess orbital symmetries:
 Alpha Orbitals:
       Occupied  (SG) (SG) (SG) (SG) (PI) (PI) (SG) (SG) (PI) (PI)
                 (SG) (PI) (PI) (SG) (SG)
       Virtual   (PI) (PI) (SG) (SG) (PI) (PI) (SG) (SG) (PI) (PI)
                 (SG)
 Beta  Orbitals:
       Occupied  (SG) (SG) (SG) (SG) (PI) (PI) (SG) (SG) (PI) (PI)
                 (SG) (PI) (PI) (SG)
       Virtual   (SG) (PI) (PI) (SG) (SG) (PI) (PI) (SG) (SG) (PI)
                 (PI) (SG)
 The electronic state of the initial guess is 2-SG.
 Initial guess <Sx>= 0.0000 <Sy>= 0.0000 <Sz>= 0.5000 <S**2>= 0.7500 S= 0.5000
 Leave Link  401 at Mon Oct 20 18:34:05 2025, MaxMem=    33554432 cpu:         0.0
 (Enter C:\G09W\l502.exe)
 UHF open shell SCF:
 Using DIIS extrapolation, IDIIS=  1040.
 Integral symmetry usage will be decided dynamically.
 Keep R1 and R2 ints in memory in symmetry-blocked form, NReq=939475.
 IVT=       20802 IEndB=       20802 NGot=    33554432 MDV=    33495249
 LenX=    33495249 LenY=    33494132
 Requested convergence on RMS density matrix=1.00D-08 within 128 cycles.
 Requested convergence on MAX density matrix=1.00D-06.
 Requested convergence on             energy=1.00D-06.
 No special actions if energy rises.
 FoFCou: FMM=F IPFlag=           0 FMFlag=           0 FMFlg1=           0
         NFxFlg=           0 DoJE=F BraDBF=F KetDBF=F FulRan=T
         wScrn=  0.000000 ICntrl=     600 IOpCl=  0 I1Cent=           0 NGrid=           0
         NMat0=    1 NMatS0=    351 NMatT0=    0 NMatD0=    1 NMtDS0=    0 NMtDT0=    0
 Petite list used in FoFCou.

 Cycle   1  Pass 1  IDiag  1:
 E= -619.212030522633    
 DIIS: error= 2.47D-02 at cycle   1 NSaved=   1.
 NSaved= 1 IEnMin= 1 EnMin= -619.212030522633     IErMin= 1 ErrMin= 2.47D-02
 ErrMax= 2.47D-02  0.00D+00 EMaxC= 1.00D-01 BMatC= 8.99D-02 BMatP= 8.99D-02
 IDIUse=3 WtCom= 7.53D-01 WtEn= 2.47D-01
 Coeff-Com:  0.100D+01
 Coeff-En:   0.100D+01
 Coeff:      0.100D+01
 Gap=     0.074 Goal=   None    Shift=    0.000
 Gap=     0.096 Goal=   None    Shift=    0.000
 GapD=    0.074 DampG=0.500 DampE=0.500 DampFc=0.2500 IDamp=-1.
 Damping current iteration by 2.50D-01
 RMSDP=2.87D-02 MaxDP=4.18D-01              OVMax= 0.00D+00

 Cycle   2  Pass 1  IDiag  1:
 E= -619.224838001788     Delta-E=       -0.012807479155 Rises=F Damp=T
 DIIS: error= 1.34D-02 at cycle   2 NSaved=   2.
 NSaved= 2 IEnMin= 2 EnMin= -619.224838001788     IErMin= 2 ErrMin= 1.34D-02
 ErrMax= 1.34D-02  0.00D+00 EMaxC= 1.00D-01 BMatC= 2.26D-02 BMatP= 8.99D-02
 IDIUse=3 WtCom= 8.66D-01 WtEn= 1.34D-01
 Coeff-Com: -0.754D+00 0.175D+01
 Coeff-En:   0.000D+00 0.100D+01
 Coeff:     -0.653D+00 0.165D+01
 Gap=     0.083 Goal=   None    Shift=    0.000
 Gap=     0.165 Goal=   None    Shift=    0.000
 RMSDP=1.42D-02 MaxDP=2.56D-01 DE=-1.28D-02 OVMax= 0.00D+00

 Cycle   3  Pass 1  IDiag  1:
 E= -619.251958282918     Delta-E=       -0.027120281129 Rises=F Damp=F
 DIIS: error= 9.50D-04 at cycle   3 NSaved=   3.
 NSaved= 3 IEnMin= 3 EnMin= -619.251958282918     IErMin= 3 ErrMin= 9.50D-04
 ErrMax= 9.50D-04  0.00D+00 EMaxC= 1.00D-01 BMatC= 6.87D-05 BMatP= 2.26D-02
 IDIUse=3 WtCom= 9.91D-01 WtEn= 9.50D-03
 Coeff-Com:  0.110D-01-0.141D-01 0.100D+01
 Coeff-En:   0.000D+00 0.000D+00 0.100D+01
 Coeff:      0.109D-01-0.140D-01 0.100D+01
 Gap=     0.075 Goal=   None    Shift=    0.000
 Gap=     0.180 Goal=   None    Shift=    0.000
 RMSDP=2.52D-03 MaxDP=4.32D-02 DE=-2.71D-02 OVMax= 0.00D+00

 Cycle   4  Pass 1  IDiag  1:
 E= -619.252210027547     Delta-E=       -0.000251744629 Rises=F Damp=F
 DIIS: error= 2.15D-04 at cycle   4 NSaved=   4.
 NSaved= 4 IEnMin= 4 EnMin= -619.252210027547     IErMin= 4 ErrMin= 2.15D-04
 ErrMax= 2.15D-04  0.00D+00 EMaxC= 1.00D-01 BMatC= 7.66D-06 BMatP= 6.87D-05
 IDIUse=3 WtCom= 9.98D-01 WtEn= 2.15D-03
 Coeff-Com: -0.159D-01 0.143D-01-0.288D+00 0.129D+01
 Coeff-En:   0.000D+00 0.000D+00 0.000D+00 0.100D+01
 Coeff:     -0.158D-01 0.143D-01-0.287D+00 0.129D+01
 Gap=     0.075 Goal=   None    Shift=    0.000
 Gap=     0.182 Goal=   None    Shift=    0.000
 RMSDP=8.86D-04 MaxDP=1.63D-02 DE=-2.52D-04 OVMax= 0.00D+00

 Cycle   5  Pass 1  IDiag  1:
 E= -619.252229646116     Delta-E=       -0.000019618569 Rises=F Damp=F
 DIIS: error= 4.52D-05 at cycle   5 NSaved=   5.
 NSaved= 5 IEnMin= 5 EnMin= -619.252229646116     IErMin= 5 ErrMin= 4.52D-05
 ErrMax= 4.52D-05  0.00D+00 EMaxC= 1.00D-01 BMatC= 2.55D-07 BMatP= 7.66D-06
 IDIUse=1 WtCom= 1.00D+00 WtEn= 0.00D+00
 Coeff-Com: -0.260D-02 0.360D-02 0.184D-01-0.991D-01 0.108D+01
 Coeff:     -0.260D-02 0.360D-02 0.184D-01-0.991D-01 0.108D+01
 Gap=     0.075 Goal=   None    Shift=    0.000
 Gap=     0.182 Goal=   None    Shift=    0.000
 RMSDP=5.28D-05 MaxDP=9.11D-04 DE=-1.96D-05 OVMax= 0.00D+00

 Cycle   6  Pass 1  IDiag  1:
 E= -619.252229795964     Delta-E=       -0.000000149848 Rises=F Damp=F
 DIIS: error= 3.09D-06 at cycle   6 NSaved=   6.
 NSaved= 6 IEnMin= 6 EnMin= -619.252229795964     IErMin= 6 ErrMin= 3.09D-06
 ErrMax= 3.09D-06  0.00D+00 EMaxC= 1.00D-01 BMatC= 8.56D-10 BMatP= 2.55D-07
 IDIUse=1 WtCom= 1.00D+00 WtEn= 0.00D+00
 Coeff-Com:  0.415D-03-0.470D-03 0.218D-02-0.139D-01-0.718D-01 0.108D+01
 Coeff:      0.415D-03-0.470D-03 0.218D-02-0.139D-01-0.718D-01 0.108D+01
 Gap=     0.075 Goal=   None    Shift=    0.000
 Gap=     0.182 Goal=   None    Shift=    0.000
 RMSDP=9.85D-06 MaxDP=1.80D-04 DE=-1.50D-07 OVMax= 0.00D+00

 Cycle   7  Pass 1  IDiag  1:
 E= -619.252229798086     Delta-E=       -0.000000002122 Rises=F Damp=F
 DIIS: error= 8.90D-07 at cycle   7 NSaved=   7.
 NSaved= 7 IEnMin= 7 EnMin= -619.252229798086     IErMin= 7 ErrMin= 8.90D-07
 ErrMax= 8.90D-07  0.00D+00 EMaxC= 1.00D-01 BMatC= 6.64D-11 BMatP= 8.56D-10
 IDIUse=1 WtCom= 1.00D+00 WtEn= 0.00D+00
 Coeff-Com:  0.134D-04-0.284D-04-0.539D-03 0.364D-02 0.838D-03-0.230D+00
 Coeff-Com:  0.123D+01
 Coeff:      0.134D-04-0.284D-04-0.539D-03 0.364D-02 0.838D-03-0.230D+00
 Coeff:      0.123D+01
 Gap=     0.075 Goal=   None    Shift=    0.000
 Gap=     0.182 Goal=   None    Shift=    0.000
 RMSDP=7.56D-07 MaxDP=1.07D-05 DE=-2.12D-09 OVMax= 0.00D+00

 Cycle   8  Pass 1  IDiag  1:
 E= -619.252229798122     Delta-E=       -0.000000000036 Rises=F Damp=F
 DIIS: error= 4.55D-08 at cycle   8 NSaved=   8.
 NSaved= 8 IEnMin= 8 EnMin= -619.252229798122     IErMin= 8 ErrMin= 4.55D-08
 ErrMax= 4.55D-08  0.00D+00 EMaxC= 1.00D-01 BMatC= 2.39D-13 BMatP= 6.64D-11
 IDIUse=1 WtCom= 1.00D+00 WtEn= 0.00D+00
 Coeff-Com: -0.787D-05 0.949D-05 0.147D-05-0.960D-05 0.942D-03 0.249D-02
 Coeff-Com: -0.964D-01 0.109D+01
 Coeff:     -0.787D-05 0.949D-05 0.147D-05-0.960D-05 0.942D-03 0.249D-02
 Coeff:     -0.964D-01 0.109D+01
 Gap=     0.075 Goal=   None    Shift=    0.000
 Gap=     0.182 Goal=   None    Shift=    0.000
 RMSDP=1.01D-07 MaxDP=1.65D-06 DE=-3.56D-11 OVMax= 0.00D+00

 Cycle   9  Pass 1  IDiag  1:
 E= -619.252229798123     Delta-E=       -0.000000000001 Rises=F Damp=F
 DIIS: error= 8.25D-09 at cycle   9 NSaved=   9.
 NSaved= 9 IEnMin= 9 EnMin= -619.252229798123     IErMin= 9 ErrMin= 8.25D-09
 ErrMax= 8.25D-09  0.00D+00 EMaxC= 1.00D-01 BMatC= 8.59D-15 BMatP= 2.39D-13
 IDIUse=1 WtCom= 1.00D+00 WtEn= 0.00D+00
 Coeff-Com: -0.837D-06 0.116D-05 0.652D-06-0.169D-04-0.113D-03 0.347D-02
 Coeff-Com: -0.162D-01-0.227D-01 0.104D+01
 Coeff:     -0.837D-06 0.116D-05 0.652D-06-0.169D-04-0.113D-03 0.347D-02
 Coeff:     -0.162D-01-0.227D-01 0.104D+01
 Gap=     0.075 Goal=   None    Shift=    0.000
 Gap=     0.182 Goal=   None    Shift=    0.000
 RMSDP=1.87D-08 MaxDP=3.02D-07 DE=-1.36D-12 OVMax= 0.00D+00

 Cycle  10  Pass 1  IDiag  1:
 E= -619.252229798122     Delta-E=        0.000000000001 Rises=F Damp=F
 DIIS: error= 1.87D-09 at cycle  10 NSaved=  10.
 NSaved=10 IEnMin= 9 EnMin= -619.252229798123     IErMin=10 ErrMin= 1.87D-09
 ErrMax= 1.87D-09  0.00D+00 EMaxC= 1.00D-01 BMatC= 4.09D-16 BMatP= 8.59D-15
 IDIUse=1 WtCom= 1.00D+00 WtEn= 0.00D+00
 Coeff-Com:  0.570D-07-0.966D-07-0.192D-06 0.220D-05 0.251D-05-0.473D-03
 Coeff-Com:  0.287D-02-0.436D-02-0.186D+00 0.119D+01
 Coeff:      0.570D-07-0.966D-07-0.192D-06 0.220D-05 0.251D-05-0.473D-03
 Coeff:      0.287D-02-0.436D-02-0.186D+00 0.119D+01
 Gap=     0.075 Goal=   None    Shift=    0.000
 Gap=     0.182 Goal=   None    Shift=    0.000
 RMSDP=2.00D-09 MaxDP=3.16D-08 DE= 7.96D-13 OVMax= 0.00D+00

 SCF Done:  E(UB3LYP) =  -619.252229798     A.U. after   10 cycles
            NFock= 10  Conv=0.20D-08     -V/T= 2.0021
 <Sx>= 0.0000 <Sy>= 0.0000 <Sz>= 0.5000 <S**2>= 0.7502 S= 0.5001
 <L.S>= 0.000000000000E+00
 KE= 6.179473041600D+02 PE=-1.596847633829D+03 EE= 3.031017352956D+02
 Annihilation of the first spin contaminant:
 S**2 before annihilation     0.7502,   after     0.7500
 Leave Link  502 at Mon Oct 20 18:34:06 2025, MaxMem=    33554432 cpu:         1.0
 (Enter C:\G09W\l601.exe)
 Copying SCF densities to generalized density rwf, IOpCl= 1 IROHF=0.

 **********************************************************************

            Population analysis using the SCF density.

 **********************************************************************

 Orbital symmetries:
 Alpha Orbitals:
       Occupied  (SG) (SG) (SG) (SG) (PI) (PI) (SG) (SG) (PI) (PI)
                 (SG) (PI) (PI) (SG) (SG)
       Virtual   (PI) (PI) (SG) (SG) (PI) (PI) (SG) (SG) (PI) (PI)
                 (SG)
 Beta  Orbitals:
       Occupied  (SG) (SG) (SG) (SG) (PI) (PI) (SG) (SG) (PI) (PI)
                 (SG) (PI) (PI) (SG)
       Virtual   (SG) (PI) (PI) (SG) (SG) (PI) (PI) (SG) (SG) (PI)
                 (PI) (SG)
 The electronic state is 2-SG.
 Alpha  occ. eigenvalues -- -100.54828 -37.99772  -9.12620  -6.89229  -6.88970
 Alpha  occ. eigenvalues --   -6.88970  -2.01648  -0.97109  -0.93553  -0.93553
 Alpha  occ. eigenvalues --   -0.55000  -0.10952  -0.10952  -0.08999   0.04139
 Alpha virt. eigenvalues --    0.11674   0.11674   0.13951   0.20244   0.23711
 Alpha virt. eigenvalues --    0.23711   0.29473   0.82122   0.83477   0.83477
 Alpha virt. eigenvalues --    1.05213
  Beta  occ. eigenvalues -- -100.54803 -37.99705  -9.12591  -6.89161  -6.88955
  Beta  occ. eigenvalues --   -6.88955  -2.01529  -0.96888  -0.93484  -0.93484
  Beta  occ. eigenvalues --   -0.54866  -0.10918  -0.10918  -0.08746
  Beta virt. eigenvalues --    0.09417   0.12727   0.12727   0.14374   0.21846
  Beta virt. eigenvalues --    0.24610   0.24610   0.30168   0.82219   0.83651
  Beta virt. eigenvalues --    0.83651   1.05462
          Condensed to atoms (all electrons):
               1          2
     1  Na  11.229213   0.001831
     2  Cl   0.001831  17.767125
          Atomic-Atomic Spin Densities.
               1          2
     1  Na   1.029470  -0.038207
     2  Cl  -0.038207   0.046943
 Mulliken charges and spin densities:
               1          2
     1  Na  -0.231044   0.991264
     2  Cl  -0.768956   0.008736
 Sum of Mulliken charges =  -1.00000   1.00000
 Mulliken charges and spin densities with hydrogens summed into heavy atoms:
               1          2
     1  Na  -0.231044   0.991264
     2  Cl  -0.768956   0.008736
 Electronic spatial extent (au):  <R**2>=            163.1787
 Charge=             -1.0000 electrons
 Dipole moment (field-independent basis, Debye):
    X=              0.0000    Y=              0.0000    Z=              4.0796  Tot=              4.0796
 Quadrupole moment (field-independent basis, Debye-Ang):
   XX=            -33.3887   YY=            -33.3887   ZZ=            -54.4629
   XY=              0.0000   XZ=              0.0000   YZ=              0.0000
 Traceless Quadrupole moment (field-independent basis, Debye-Ang):
   XX=              7.0247   YY=              7.0247   ZZ=            -14.0495
   XY=              0.0000   XZ=              0.0000   YZ=              0.0000
 Octapole moment (field-independent basis, Debye-Ang**2):
  XXX=              0.0000  YYY=              0.0000  ZZZ=            114.4304  XYY=              0.0000
  XXY=              0.0000  XXZ=             26.0623  XZZ=              0.0000  YZZ=              0.0000
  YYZ=             26.0623  XYZ=              0.0000
 Hexadecapole moment (field-independent basis, Debye-Ang**3):
 XXXX=           -149.7974 YYYY=           -149.7974 ZZZZ=           -665.4545 XXXY=              0.0000
 XXXZ=              0.0000 YYYX=              0.0000 YYYZ=              0.0000 ZZZX=              0.0000
 ZZZY=              0.0000 XXYY=            -49.9325 XXZZ=           -125.1569 YYZZ=           -125.1569
 XXYZ=              0.0000 YYXZ=              0.0000 ZZXY=              0.0000
 N-N= 5.654636457505D+01 E-N=-1.596847633658D+03  KE= 6.179473041600D+02
 Symmetry A1   KE= 5.053914443769D+02
 Symmetry A2   KE= 0.000000000000D+00
 Symmetry B1   KE= 5.627792989153D+01
 Symmetry B2   KE= 5.627792989153D+01
                          Isotropic Fermi Contact Couplings
        Atom                 a.u.       MegaHertz       Gauss      10(-4) cm-1
     1  Na(23)             0.09465     111.97063      39.95390      37.34938
     2  Cl(35)             0.05642      24.73792       8.82711       8.25168
 --------------------------------------------------------
       Center         ----  Spin Dipole Couplings  ----
                      3XX-RR        3YY-RR        3ZZ-RR
 --------------------------------------------------------
     1   Atom       -0.058996     -0.058996      0.117993
     2   Atom       -0.084789     -0.084789      0.169577
 --------------------------------------------------------
                        XY            XZ            YZ
 --------------------------------------------------------
     1   Atom        0.000000      0.000000      0.000000
     2   Atom        0.000000      0.000000      0.000000
 --------------------------------------------------------


 ---------------------------------------------------------------------------------
              Anisotropic Spin Dipole Couplings in Principal Axis System
 ---------------------------------------------------------------------------------

       Atom             a.u.   MegaHertz   Gauss  10(-4) cm-1        Axes

              Baa    -0.0590    -8.331    -2.973    -2.779  1.0000  0.0000  0.0000
     1 Na(23) Bbb    -0.0590    -8.331    -2.973    -2.779  0.0000  1.0000  0.0000
              Bcc     0.1180    16.662     5.945     5.558  0.0000  0.0000  1.0000
 
              Baa    -0.0848    -4.438    -1.583    -1.480  0.0000  1.0000  0.0000
     2 Cl(35) Bbb    -0.0848    -4.438    -1.583    -1.480  1.0000  0.0000  0.0000
              Bcc     0.1696     8.875     3.167     2.960  0.0000  0.0000  1.0000
 

 ---------------------------------------------------------------------------------

 No NMR shielding tensors so no spin-rotation constants.
 Leave Link  601 at Mon Oct 20 18:34:06 2025, MaxMem=    33554432 cpu:         0.0
 (Enter C:\G09W\l9999.exe)
 1|1|UNPC-ALEXHPENVY|SP|UB3LYP|3-21G|Cl1Na1(1-,2)|XC0RP|20-Oct-2025|0||
 #p b3lyp/3-21g||Title Card Required||-1,2|Na,0,0.,0.,1.75|Cl,0,0.,0.,0
 .||Version=IA32W-G09RevD.01|State=2-SG|HF=-619.2522298|S2=0.750183|S2-
 1=0.|S2A=0.75|RMSD=2.001e-009|Dipole=0.,0.,-1.6050553|Quadrupole=5.222
 7198,5.2227198,-10.4454396,0.,0.,0.|PG=C*V [C*(Na1Cl1)]||@


 A MAN SHOULD NEVER BE ASHAMED TO OWN HE HAS BEEN IN THE WRONG
 WHICH IS BUT SAYING IN OTHER WORDS,
 THAT HE IS WISER TODAY THAN HE WAS YESTERDAY.

                          -- JONATHAN SWIFT
 Job cpu time:       0 days  0 hours  0 minutes  1.0 seconds.
 File lengths (MBytes):  RWF=      5 Int=      0 D2E=      0 Chk=      1 Scr=      1
 Normal termination of Gaussian 09 at Mon Oct 20 18:34:06 2025.
