 Entering Link 1 = C:\G09W\l1.exe PID=     13684.
  
 Copyright (c) 1988,1990,1992,1993,1995,1998,2003,2009,2013,
            Gaussian, Inc.  All Rights Reserved.
  
 This is part of the Gaussian(R) 09 program.  It is based on
 the Gaussian(R) 03 system (copyright 2003, Gaussian, Inc.),
 the Gaussian(R) 98 system (copyright 1998, Gaussian, Inc.),
 the Gaussian(R) 94 system (copyright 1995, Gaussian, Inc.),
 the Gaussian 92(TM) system (copyright 1992, Gaussian, Inc.),
 the Gaussian 90(TM) system (copyright 1990, Gaussian, Inc.),
 the Gaussian 88(TM) system (copyright 1988, Gaussian, Inc.),
 the Gaussian 86(TM) system (copyright 1986, Carnegie Mellon
 University), and the Gaussian 82(TM) system (copyright 1983,
 Carnegie Mellon University). Gaussian is a federally registered
 trademark of Gaussian, Inc.
  
 This software contains proprietary and confidential information,
 including trade secrets, belonging to Gaussian, Inc.
  
 This software is provided under written license and may be
 used, copied, transmitted, or stored only in accord with that
 written license.
  
 The following legend is applicable only to US Government
 contracts under FAR:
  
                    RESTRICTED RIGHTS LEGEND
  
 Use, reproduction and disclosure by the US Government is
 subject to restrictions as set forth in subparagraphs (a)
 and (c) of the Commercial Computer Software - Restricted
 Rights clause in FAR 52.227-19.
  
 Gaussian, Inc.
 340 Quinnipiac St., Bldg. 40, Wallingford CT 06492
  
  
 ---------------------------------------------------------------
 Warning -- This program may not be used in any manner that
 competes with the business of Gaussian, Inc. or will provide
 assistance to any competitor of Gaussian, Inc.  The licensee
 of this program is prohibited from giving any competitor of
 Gaussian, Inc. access to this program.  By using this program,
 the user acknowledges that Gaussian, Inc. is engaged in the
 business of creating and licensing software in the field of
 computational chemistry and represents and warrants to the
 licensee that it is not a competitor of Gaussian, Inc. and that
 it will not use this program in any manner prohibited above.
 ---------------------------------------------------------------
  

 Cite this work as:
 Gaussian 09, Revision D.01,
 M. J. Frisch, G. W. Trucks, H. B. Schlegel, G. E. Scuseria, 
 M. A. Robb, J. R. Cheeseman, G. Scalmani, V. Barone, B. Mennucci, 
 G. A. Petersson, H. Nakatsuji, M. Caricato, X. Li, H. P. Hratchian, 
 A. F. Izmaylov, J. Bloino, G. Zheng, J. L. Sonnenberg, M. Hada, 
 M. Ehara, K. Toyota, R. Fukuda, J. Hasegawa, M. Ishida, T. Nakajima, 
 Y. Honda, O. Kitao, H. Nakai, T. Vreven, J. A. Montgomery, Jr., 
 J. E. Peralta, F. Ogliaro, M. Bearpark, J. J. Heyd, E. Brothers, 
 K. N. Kudin, V. N. Staroverov, T. Keith, R. Kobayashi, J. Normand, 
 K. Raghavachari, A. Rendell, J. C. Burant, S. S. Iyengar, J. Tomasi, 
 M. Cossi, N. Rega, J. M. Millam, M. Klene, J. E. Knox, J. B. Cross, 
 V. Bakken, C. Adamo, J. Jaramillo, R. Gomperts, R. E. Stratmann, 
 O. Yazyev, A. J. Austin, R. Cammi, C. Pomelli, J. W. Ochterski, 
 R. L. Martin, K. Morokuma, V. G. Zakrzewski, G. A. Voth, 
 P. Salvador, J. J. Dannenberg, S. Dapprich, A. D. Daniels, 
 O. Farkas, J. B. Foresman, J. V. Ortiz, J. Cioslowski, 
 and D. J. Fox, Gaussian, Inc., Wallingford CT, 2013.
 
 ******************************************
 Gaussian 09:  IA32W-G09RevD.01 24-Apr-2013
                20-Oct-2025 
 ******************************************
 %chk=C:\Users\Xc0rp\Desktop\quimica\NaCl-1_0.chk
 --------------
 #p b3lyp/3-21g
 --------------
 1/38=1/1;
 2/12=2,17=6,18=5,40=1/2;
 3/5=5,11=2,16=1,25=1,30=1,74=-5/1,2,3;
 4//1;
 5/5=2,38=5/2;
 6/7=2,8=2,9=2,10=2,28=1/1;
 99/5=1,9=1/99;
 Leave Link    1 at Mon Oct 20 18:33:54 2025, MaxMem=           0 cpu:         0.0
 (Enter C:\G09W\l101.exe)
 -------------------
 Title Card Required
 -------------------
 Symbolic Z-matrix:
 Charge = -1 Multiplicity = 2
 Na                    0.        0.        1. 
 Cl                    0.        0.        0. 
 
 NAtoms=      2 NQM=        2 NQMF=       0 NMMI=      0 NMMIF=      0
                NMic=       0 NMicF=      0.
                    Isotopes and Nuclear Properties:
 (Nuclear quadrupole moments (NQMom) in fm**2, nuclear magnetic moments (NMagM)
  in nuclear magnetons)

  Atom         1           2
 IAtWgt=          23          35
 AtmWgt=  22.9897697  34.9688527
 NucSpn=           3           3
 AtZEff=   0.0000000   0.0000000
 NQMom=   10.4000000  -8.1650000
 NMagM=    2.2175200   0.8218740
 AtZNuc=  11.0000000  17.0000000
 Leave Link  101 at Mon Oct 20 18:33:54 2025, MaxMem=    33554432 cpu:         0.0
 (Enter C:\G09W\l202.exe)
                          Input orientation:                          
 ---------------------------------------------------------------------
 Center     Atomic      Atomic             Coordinates (Angstroms)
 Number     Number       Type             X           Y           Z
 ---------------------------------------------------------------------
      1         11           0        0.000000    0.000000    1.000000
      2         17           0        0.000000    0.000000    0.000000
 ---------------------------------------------------------------------
 Stoichiometry    ClNa(1-,2)
 Framework group  C*V[C*(NaCl)]
 Deg. of freedom     1
 Full point group                 C*V     NOp   4
 Largest Abelian subgroup         C2V     NOp   4
 Largest concise Abelian subgroup C1      NOp   1
                         Standard orientation:                         
 ---------------------------------------------------------------------
 Center     Atomic      Atomic             Coordinates (Angstroms)
 Number     Number       Type             X           Y           Z
 ---------------------------------------------------------------------
      1         11           0        0.000000    0.000000   -0.607143
      2         17           0        0.000000    0.000000    0.392857
 ---------------------------------------------------------------------
 Rotational constants (GHZ):      0.0000000     36.4350396     36.4350396
 Leave Link  202 at Mon Oct 20 18:33:55 2025, MaxMem=    33554432 cpu:         0.0
 (Enter C:\G09W\l301.exe)
 Standard basis: 3-21G (6D, 7F)
 Ernie: Thresh=  0.10000D-02 Tol=  0.10000D-05 Strict=F.
 There are    14 symmetry adapted cartesian basis functions of A1  symmetry.
 There are     0 symmetry adapted cartesian basis functions of A2  symmetry.
 There are     6 symmetry adapted cartesian basis functions of B1  symmetry.
 There are     6 symmetry adapted cartesian basis functions of B2  symmetry.
 There are    14 symmetry adapted basis functions of A1  symmetry.
 There are     0 symmetry adapted basis functions of A2  symmetry.
 There are     6 symmetry adapted basis functions of B1  symmetry.
 There are     6 symmetry adapted basis functions of B2  symmetry.
    26 basis functions,    54 primitive gaussians,    26 cartesian basis functions
    15 alpha electrons       14 beta electrons
       nuclear repulsion energy        98.9561380063 Hartrees.



 Warning!  Cl atom    2 may be hypervalent but has no d functions.



 IExCor=  402 DFT=T Ex+Corr=B3LYP ExCW=0 ScaHFX=  0.200000
 ScaDFX=  0.800000  0.720000  1.000000  0.810000 ScalE2=  1.000000  1.000000
 IRadAn=      0 IRanWt=     -1 IRanGd=            0 ICorTp=0 IEmpDi=  4
 NAtoms=    2 NActive=    2 NUniq=    2 SFac= 1.00D+00 NAtFMM=   60 NAOKFM=F Big=F
 Integral buffers will be    262144 words long.
 Raffenetti 2 integral format.
 Two-electron integral symmetry is turned on.
 Leave Link  301 at Mon Oct 20 18:33:55 2025, MaxMem=    33554432 cpu:         0.0
 (Enter C:\G09W\l302.exe)
 NPDir=0 NMtPBC=     1 NCelOv=     1 NCel=       1 NClECP=     1 NCelD=      1
         NCelK=      1 NCelE2=     1 NClLst=     1 CellRange=     0.0.
 One-electron integrals computed using PRISM.
 NBasis=    26 RedAO= T EigKep=  5.07D-02  NBF=    14     0     6     6
 NBsUse=    26 1.00D-06 EigRej= -1.00D+00 NBFU=    14     0     6     6
 Precomputing XC quadrature grid using
 IXCGrd= 4 IRadAn=           0 IRanWt=          -1 IRanGd=           0 AccXCQ= 0.00D+00.
 Generated NRdTot=       0 NPtTot=           0 NUsed=           0 NTot=          16
 NSgBfM=    26    26    26    26    26 MxSgAt=     2 MxSgA2=     2.
 Leave Link  302 at Mon Oct 20 18:33:55 2025, MaxMem=    33554432 cpu:         0.0
 (Enter C:\G09W\l303.exe)
 DipDrv:  MaxL=1.
 Leave Link  303 at Mon Oct 20 18:33:55 2025, MaxMem=    33554432 cpu:         0.0
 (Enter C:\G09W\l401.exe)
 ExpMin= 2.44D-02 ExpMax= 1.38D+03 ExpMxC= 1.38D+03 IAcc=3 IRadAn=         5 AccDes= 0.00D+00
 Harris functional with IExCor=  402 and IRadAn=       5 diagonalized for initial guess.
 HarFok:  IExCor=  402 AccDes= 0.00D+00 IRadAn=         5 IDoV= 1 UseB2=F ITyADJ=14
 ICtDFT=  3500011 ScaDFX=  1.000000  1.000000  1.000000  1.000000
 FoFCou: FMM=F IPFlag=           0 FMFlag=      100000 FMFlg1=           0
         NFxFlg=           0 DoJE=T BraDBF=F KetDBF=T FulRan=T
         wScrn=  0.000000 ICntrl=     500 IOpCl=  0 I1Cent=   200000004 NGrid=           0
         NMat0=    1 NMatS0=      1 NMatT0=    0 NMatD0=    1 NMtDS0=    0 NMtDT0=    0
 Petite list used in FoFCou.
 Harris En= -617.167617338378    
 JPrj=0 DoOrth=F DoCkMO=F.
 Initial guess orbital symmetries:
 Alpha Orbitals:
       Occupied  (SG) (SG) (SG) (SG) (PI) (PI) (SG) (SG) (PI) (PI)
                 (SG) (PI) (PI) (SG) (SG)
       Virtual   (PI) (PI) (SG) (PI) (PI) (SG) (SG) (PI) (PI) (SG)
                 (SG)
 Beta  Orbitals:
       Occupied  (SG) (SG) (SG) (SG) (PI) (PI) (SG) (SG) (PI) (PI)
                 (SG) (PI) (PI) (SG)
       Virtual   (SG) (PI) (PI) (SG) (PI) (PI) (SG) (SG) (PI) (PI)
                 (SG) (SG)
 The electronic state of the initial guess is 2-SG.
 Initial guess <Sx>= 0.0000 <Sy>= 0.0000 <Sz>= 0.5000 <S**2>= 0.7500 S= 0.5000
 Leave Link  401 at Mon Oct 20 18:33:56 2025, MaxMem=    33554432 cpu:         0.0
 (Enter C:\G09W\l502.exe)
 UHF open shell SCF:
 Using DIIS extrapolation, IDIIS=  1040.
 Integral symmetry usage will be decided dynamically.
 Keep R1 and R2 ints in memory in symmetry-blocked form, NReq=939475.
 IVT=       20802 IEndB=       20802 NGot=    33554432 MDV=    33495249
 LenX=    33495249 LenY=    33494132
 Requested convergence on RMS density matrix=1.00D-08 within 128 cycles.
 Requested convergence on MAX density matrix=1.00D-06.
 Requested convergence on             energy=1.00D-06.
 No special actions if energy rises.
 FoFCou: FMM=F IPFlag=           0 FMFlag=           0 FMFlg1=           0
         NFxFlg=           0 DoJE=F BraDBF=F KetDBF=F FulRan=T
         wScrn=  0.000000 ICntrl=     600 IOpCl=  0 I1Cent=           0 NGrid=           0
         NMat0=    1 NMatS0=    351 NMatT0=    0 NMatD0=    1 NMtDS0=    0 NMtDT0=    0
 Petite list used in FoFCou.

 Cycle   1  Pass 1  IDiag  1:
 E= -617.121781359012    
 DIIS: error= 3.29D-02 at cycle   1 NSaved=   1.
 NSaved= 1 IEnMin= 1 EnMin= -617.121781359012     IErMin= 1 ErrMin= 3.29D-02
 ErrMax= 3.29D-02  0.00D+00 EMaxC= 1.00D-01 BMatC= 1.01D-01 BMatP= 1.01D-01
 IDIUse=3 WtCom= 6.71D-01 WtEn= 3.29D-01
 Coeff-Com:  0.100D+01
 Coeff-En:   0.100D+01
 Coeff:      0.100D+01
 Gap=     0.044 Goal=   None    Shift=    0.000
 Gap=     0.148 Goal=   None    Shift=    0.000
 GapD=    0.044 DampG=0.250 DampE=0.500 DampFc=0.2500 IDamp=-1.
 Damping current iteration by 2.50D-01
 RMSDP=2.83D-02 MaxDP=2.58D-01              OVMax= 0.00D+00

 Cycle   2  Pass 1  IDiag  1:
 E= -617.131271294279     Delta-E=       -0.009489935267 Rises=F Damp=T
 DIIS: error= 2.13D-02 at cycle   2 NSaved=   2.
 NSaved= 2 IEnMin= 2 EnMin= -617.131271294279     IErMin= 2 ErrMin= 2.13D-02
 ErrMax= 2.13D-02  0.00D+00 EMaxC= 1.00D-01 BMatC= 4.36D-02 BMatP= 1.01D-01
 IDIUse=3 WtCom= 7.87D-01 WtEn= 2.13D-01
 Coeff-Com: -0.162D+01 0.262D+01
 Coeff-En:   0.000D+00 0.100D+01
 Coeff:     -0.128D+01 0.228D+01
 Gap=     0.033 Goal=   None    Shift=    0.000
 Gap=     0.122 Goal=   None    Shift=    0.000
 RMSDP=1.90D-02 MaxDP=2.96D-01 DE=-9.49D-03 OVMax= 0.00D+00

 Cycle   3  Pass 1  IDiag  1:
 E= -617.151831488481     Delta-E=       -0.020560194203 Rises=F Damp=F
 DIIS: error= 4.31D-03 at cycle   3 NSaved=   3.
 NSaved= 3 IEnMin= 3 EnMin= -617.151831488481     IErMin= 3 ErrMin= 4.31D-03
 ErrMax= 4.31D-03  0.00D+00 EMaxC= 1.00D-01 BMatC= 2.98D-03 BMatP= 4.36D-02
 IDIUse=3 WtCom= 9.57D-01 WtEn= 4.31D-02
 Coeff-Com: -0.690D+00 0.105D+01 0.641D+00
 Coeff-En:   0.000D+00 0.000D+00 0.100D+01
 Coeff:     -0.660D+00 0.100D+01 0.657D+00
 Gap=     0.036 Goal=   None    Shift=    0.000
 Gap=     0.124 Goal=   None    Shift=    0.000
 RMSDP=3.67D-03 MaxDP=2.66D-02 DE=-2.06D-02 OVMax= 0.00D+00

 Cycle   4  Pass 1  IDiag  1:
 E= -617.153037528306     Delta-E=       -0.001206039824 Rises=F Damp=F
 DIIS: error= 4.11D-04 at cycle   4 NSaved=   4.
 NSaved= 4 IEnMin= 4 EnMin= -617.153037528306     IErMin= 4 ErrMin= 4.11D-04
 ErrMax= 4.11D-04  0.00D+00 EMaxC= 1.00D-01 BMatC= 3.00D-05 BMatP= 2.98D-03
 IDIUse=3 WtCom= 9.96D-01 WtEn= 4.11D-03
 Coeff-Com:  0.647D-01-0.948D-01 0.368D-01 0.993D+00
 Coeff-En:   0.000D+00 0.000D+00 0.000D+00 0.100D+01
 Coeff:      0.644D-01-0.944D-01 0.366D-01 0.993D+00
 Gap=     0.036 Goal=   None    Shift=    0.000
 Gap=     0.124 Goal=   None    Shift=    0.000
 RMSDP=1.99D-03 MaxDP=3.44D-02 DE=-1.21D-03 OVMax= 0.00D+00

 Cycle   5  Pass 1  IDiag  1:
 E= -617.153073297333     Delta-E=       -0.000035769028 Rises=F Damp=F
 DIIS: error= 1.18D-04 at cycle   5 NSaved=   5.
 NSaved= 5 IEnMin= 5 EnMin= -617.153073297333     IErMin= 5 ErrMin= 1.18D-04
 ErrMax= 1.18D-04  0.00D+00 EMaxC= 1.00D-01 BMatC= 1.97D-06 BMatP= 3.00D-05
 IDIUse=3 WtCom= 9.99D-01 WtEn= 1.18D-03
 Coeff-Com:  0.423D-01-0.611D-01-0.219D-01 0.479D-01 0.993D+00
 Coeff-En:   0.000D+00 0.000D+00 0.000D+00 0.000D+00 0.100D+01
 Coeff:      0.423D-01-0.610D-01-0.219D-01 0.478D-01 0.993D+00
 Gap=     0.036 Goal=   None    Shift=    0.000
 Gap=     0.124 Goal=   None    Shift=    0.000
 RMSDP=6.56D-04 MaxDP=1.03D-02 DE=-3.58D-05 OVMax= 0.00D+00

 Cycle   6  Pass 1  IDiag  1:
 E= -617.153077664474     Delta-E=       -0.000004367140 Rises=F Damp=F
 DIIS: error= 6.49D-05 at cycle   6 NSaved=   6.
 NSaved= 6 IEnMin= 6 EnMin= -617.153077664474     IErMin= 6 ErrMin= 6.49D-05
 ErrMax= 6.49D-05  0.00D+00 EMaxC= 1.00D-01 BMatC= 7.26D-07 BMatP= 1.97D-06
 IDIUse=1 WtCom= 1.00D+00 WtEn= 0.00D+00
 Coeff-Com:  0.968D-02-0.135D-01-0.187D-03-0.649D-01-0.188D+00 0.126D+01
 Coeff:      0.968D-02-0.135D-01-0.187D-03-0.649D-01-0.188D+00 0.126D+01
 Gap=     0.036 Goal=   None    Shift=    0.000
 Gap=     0.124 Goal=   None    Shift=    0.000
 RMSDP=4.27D-04 MaxDP=7.20D-03 DE=-4.37D-06 OVMax= 0.00D+00

 Cycle   7  Pass 1  IDiag  1:
 E= -617.153078711491     Delta-E=       -0.000001047017 Rises=F Damp=F
 DIIS: error= 8.40D-06 at cycle   7 NSaved=   7.
 NSaved= 7 IEnMin= 7 EnMin= -617.153078711491     IErMin= 7 ErrMin= 8.40D-06
 ErrMax= 8.40D-06  0.00D+00 EMaxC= 1.00D-01 BMatC= 7.26D-09 BMatP= 7.26D-07
 IDIUse=1 WtCom= 1.00D+00 WtEn= 0.00D+00
 Coeff-Com: -0.238D-02 0.337D-02 0.151D-02 0.197D-01-0.834D-01-0.932D-01
 Coeff-Com:  0.115D+01
 Coeff:     -0.238D-02 0.337D-02 0.151D-02 0.197D-01-0.834D-01-0.932D-01
 Coeff:      0.115D+01
 Gap=     0.036 Goal=   None    Shift=    0.000
 Gap=     0.124 Goal=   None    Shift=    0.000
 RMSDP=8.03D-05 MaxDP=1.31D-03 DE=-1.05D-06 OVMax= 0.00D+00

 Cycle   8  Pass 1  IDiag  1:
 E= -617.153078745447     Delta-E=       -0.000000033956 Rises=F Damp=F
 DIIS: error= 1.14D-06 at cycle   8 NSaved=   8.
 NSaved= 8 IEnMin= 8 EnMin= -617.153078745447     IErMin= 8 ErrMin= 1.14D-06
 ErrMax= 1.14D-06  0.00D+00 EMaxC= 1.00D-01 BMatC= 1.84D-10 BMatP= 7.26D-09
 IDIUse=1 WtCom= 1.00D+00 WtEn= 0.00D+00
 Coeff-Com:  0.288D-03-0.411D-03-0.300D-03-0.113D-02 0.116D-01-0.109D-01
 Coeff-Com: -0.225D+00 0.123D+01
 Coeff:      0.288D-03-0.411D-03-0.300D-03-0.113D-02 0.116D-01-0.109D-01
 Coeff:     -0.225D+00 0.123D+01
 Gap=     0.036 Goal=   None    Shift=    0.000
 Gap=     0.124 Goal=   None    Shift=    0.000
 RMSDP=1.36D-05 MaxDP=2.09D-04 DE=-3.40D-08 OVMax= 0.00D+00

 Cycle   9  Pass 1  IDiag  1:
 E= -617.153078746193     Delta-E=       -0.000000000747 Rises=F Damp=F
 DIIS: error= 1.92D-07 at cycle   9 NSaved=   9.
 NSaved= 9 IEnMin= 9 EnMin= -617.153078746193     IErMin= 9 ErrMin= 1.92D-07
 ErrMax= 1.92D-07  0.00D+00 EMaxC= 1.00D-01 BMatC= 3.92D-12 BMatP= 1.84D-10
 IDIUse=1 WtCom= 1.00D+00 WtEn= 0.00D+00
 Coeff-Com: -0.187D-04 0.265D-04 0.353D-04-0.310D-03 0.258D-03 0.418D-02
 Coeff-Com:  0.245D-01-0.252D+00 0.122D+01
 Coeff:     -0.187D-04 0.265D-04 0.353D-04-0.310D-03 0.258D-03 0.418D-02
 Coeff:      0.245D-01-0.252D+00 0.122D+01
 Gap=     0.036 Goal=   None    Shift=    0.000
 Gap=     0.124 Goal=   None    Shift=    0.000
 RMSDP=1.10D-06 MaxDP=1.65D-05 DE=-7.47D-10 OVMax= 0.00D+00

 Cycle  10  Pass 1  IDiag  1:
 E= -617.153078746207     Delta-E=       -0.000000000014 Rises=F Damp=F
 DIIS: error= 5.38D-08 at cycle  10 NSaved=  10.
 NSaved=10 IEnMin=10 EnMin= -617.153078746207     IErMin=10 ErrMin= 5.38D-08
 ErrMax= 5.38D-08  0.00D+00 EMaxC= 1.00D-01 BMatC= 3.01D-13 BMatP= 3.92D-12
 IDIUse=1 WtCom= 1.00D+00 WtEn= 0.00D+00
 Coeff-Com:  0.870D-05-0.121D-04-0.135D-04 0.903D-04 0.566D-04-0.180D-02
 Coeff-Com: -0.478D-02 0.637D-01-0.555D+00 0.150D+01
 Coeff:      0.870D-05-0.121D-04-0.135D-04 0.903D-04 0.566D-04-0.180D-02
 Coeff:     -0.478D-02 0.637D-01-0.555D+00 0.150D+01
 Gap=     0.036 Goal=   None    Shift=    0.000
 Gap=     0.124 Goal=   None    Shift=    0.000
 RMSDP=3.43D-07 MaxDP=4.76D-06 DE=-1.38D-11 OVMax= 0.00D+00

 Cycle  11  Pass 1  IDiag  1:
 E= -617.153078746208     Delta-E=       -0.000000000001 Rises=F Damp=F
 DIIS: error= 7.89D-09 at cycle  11 NSaved=  11.
 NSaved=11 IEnMin=11 EnMin= -617.153078746208     IErMin=11 ErrMin= 7.89D-09
 ErrMax= 7.89D-09  0.00D+00 EMaxC= 1.00D-01 BMatC= 3.12D-15 BMatP= 3.01D-13
 IDIUse=1 WtCom= 1.00D+00 WtEn= 0.00D+00
 Coeff-Com: -0.226D-06 0.275D-06-0.589D-06-0.394D-05 0.640D-05 0.160D-05
 Coeff-Com: -0.999D-03 0.534D-02-0.905D-02-0.596D-01 0.106D+01
 Coeff:     -0.226D-06 0.275D-06-0.589D-06-0.394D-05 0.640D-05 0.160D-05
 Coeff:     -0.999D-03 0.534D-02-0.905D-02-0.596D-01 0.106D+01
 Gap=     0.036 Goal=   None    Shift=    0.000
 Gap=     0.124 Goal=   None    Shift=    0.000
 RMSDP=1.56D-08 MaxDP=1.23D-07 DE=-1.48D-12 OVMax= 0.00D+00

 Cycle  12  Pass 1  IDiag  1:
 E= -617.153078746208     Delta-E=        0.000000000000 Rises=F Damp=F
 DIIS: error= 5.45D-10 at cycle  12 NSaved=  12.
 NSaved=12 IEnMin=11 EnMin= -617.153078746208     IErMin=12 ErrMin= 5.45D-10
 ErrMax= 5.45D-10  0.00D+00 EMaxC= 1.00D-01 BMatC= 2.16D-17 BMatP= 3.12D-15
 IDIUse=1 WtCom= 1.00D+00 WtEn= 0.00D+00
 Coeff-Com: -0.460D-07 0.709D-07 0.211D-06-0.317D-06 0.125D-06 0.136D-04
 Coeff-Com:  0.173D-03-0.123D-02 0.708D-02-0.876D-02-0.131D+00 0.113D+01
 Coeff:     -0.460D-07 0.709D-07 0.211D-06-0.317D-06 0.125D-06 0.136D-04
 Coeff:      0.173D-03-0.123D-02 0.708D-02-0.876D-02-0.131D+00 0.113D+01
 Gap=     0.036 Goal=   None    Shift=    0.000
 Gap=     0.124 Goal=   None    Shift=    0.000
 RMSDP=1.52D-09 MaxDP=1.71D-08 DE= 4.55D-13 OVMax= 0.00D+00

 SCF Done:  E(UB3LYP) =  -617.153078746     A.U. after   12 cycles
            NFock= 12  Conv=0.15D-08     -V/T= 1.9934
 <Sx>= 0.0000 <Sy>= 0.0000 <Sz>= 0.5000 <S**2>= 0.7504 S= 0.5002
 <L.S>= 0.000000000000E+00
 KE= 6.212474832652D+02 PE=-1.669797388361D+03 EE= 3.324406883434D+02
 Annihilation of the first spin contaminant:
 S**2 before annihilation     0.7504,   after     0.7500
 Leave Link  502 at Mon Oct 20 18:33:57 2025, MaxMem=    33554432 cpu:         1.0
 (Enter C:\G09W\l601.exe)
 Copying SCF densities to generalized density rwf, IOpCl= 1 IROHF=0.

 **********************************************************************

            Population analysis using the SCF density.

 **********************************************************************

 Orbital symmetries:
 Alpha Orbitals:
       Occupied  (SG) (SG) (SG) (SG) (PI) (PI) (SG) (SG) (PI) (PI)
                 (SG) (PI) (PI) (SG) (SG)
       Virtual   (PI) (PI) (SG) (PI) (PI) (SG) (SG) (PI) (PI) (SG)
                 (SG)
 Beta  Orbitals:
       Occupied  (SG) (SG) (SG) (SG) (PI) (PI) (SG) (SG) (PI) (PI)
                 (SG) (PI) (PI) (SG)
       Virtual   (SG) (PI) (PI) (SG) (PI) (PI) (SG) (SG) (PI) (PI)
                 (SG) (SG)
 The electronic state is 2-SG.
 Alpha  occ. eigenvalues -- -100.91676 -38.55556  -9.54744  -7.32879  -7.27283
 Alpha  occ. eigenvalues --   -7.27283  -2.81033  -1.57790  -1.50978  -1.50978
 Alpha  occ. eigenvalues --   -0.63019  -0.28576  -0.28576  -0.02292   0.06716
 Alpha virt. eigenvalues --    0.10290   0.10290   0.11780   0.21309   0.21309
 Alpha virt. eigenvalues --    0.22058   0.34469   0.72654   0.72654   0.83463
 Alpha virt. eigenvalues --    0.90549
  Beta  occ. eigenvalues -- -100.91596 -38.55362  -9.54635  -7.32735  -7.27217
  Beta  occ. eigenvalues --   -7.27217  -2.80608  -1.57588  -1.50816  -1.50816
  Beta  occ. eigenvalues --   -0.62471  -0.28224  -0.28224  -0.01737
  Beta virt. eigenvalues --    0.10622   0.11388   0.11388   0.12554   0.21507
  Beta virt. eigenvalues --    0.21507   0.22312   0.35492   0.72998   0.72998
  Beta virt. eigenvalues --    0.84261   0.90880
          Condensed to atoms (all electrons):
               1          2
     1  Na  12.544051  -0.668375
     2  Cl  -0.668375  17.792698
          Atomic-Atomic Spin Densities.
               1          2
     1  Na   0.951998  -0.115424
     2  Cl  -0.115424   0.278851
 Mulliken charges and spin densities:
               1          2
     1  Na  -0.875676   0.836573
     2  Cl  -0.124324   0.163427
 Sum of Mulliken charges =  -1.00000   1.00000
 Mulliken charges and spin densities with hydrogens summed into heavy atoms:
               1          2
     1  Na  -0.875676   0.836573
     2  Cl  -0.124324   0.163427
 Electronic spatial extent (au):  <R**2>=            124.4708
 Charge=             -1.0000 electrons
 Dipole moment (field-independent basis, Debye):
    X=              0.0000    Y=              0.0000    Z=             -0.9960  Tot=              0.9960
 Quadrupole moment (field-independent basis, Debye-Ang):
   XX=            -43.4823   YY=            -43.4823   ZZ=            -48.3743
   XY=              0.0000   XZ=              0.0000   YZ=              0.0000
 Traceless Quadrupole moment (field-independent basis, Debye-Ang):
   XX=              1.6307   YY=              1.6307   ZZ=             -3.2614
   XY=              0.0000   XZ=              0.0000   YZ=              0.0000
 Octapole moment (field-independent basis, Debye-Ang**2):
  XXX=              0.0000  YYY=              0.0000  ZZZ=             -0.9930  XYY=              0.0000
  XXY=              0.0000  XXZ=             -2.6942  XZZ=              0.0000  YZZ=              0.0000
  YYZ=             -2.6942  XYZ=              0.0000
 Hexadecapole moment (field-independent basis, Debye-Ang**3):
 XXXX=           -264.9097 YYYY=           -264.9097 ZZZZ=           -355.4066 XXXY=              0.0000
 XXXZ=              0.0000 YYYX=              0.0000 YYYZ=              0.0000 ZZZX=              0.0000
 ZZZY=              0.0000 XXYY=            -88.3032 XXZZ=           -101.4676 YYZZ=           -101.4676
 XXYZ=              0.0000 YYXZ=              0.0000 ZZXY=              0.0000
 N-N= 9.895613800633D+01 E-N=-1.669797388318D+03  KE= 6.212474832652D+02
 Symmetry A1   KE= 5.048856013551D+02
 Symmetry A2   KE= 0.000000000000D+00
 Symmetry B1   KE= 5.818094095503D+01
 Symmetry B2   KE= 5.818094095503D+01
                          Isotropic Fermi Contact Couplings
        Atom                 a.u.       MegaHertz       Gauss      10(-4) cm-1
     1  Na(23)             0.29990     354.78803     126.59719     118.34455
     2  Cl(35)             0.25919     113.64327      40.55074      37.90732
 --------------------------------------------------------
       Center         ----  Spin Dipole Couplings  ----
                      3XX-RR        3YY-RR        3ZZ-RR
 --------------------------------------------------------
     1   Atom       -0.142276     -0.142276      0.284553
     2   Atom       -0.158571     -0.158571      0.317143
 --------------------------------------------------------
                        XY            XZ            YZ
 --------------------------------------------------------
     1   Atom        0.000000      0.000000      0.000000
     2   Atom        0.000000      0.000000      0.000000
 --------------------------------------------------------


 ---------------------------------------------------------------------------------
              Anisotropic Spin Dipole Couplings in Principal Axis System
 ---------------------------------------------------------------------------------

       Atom             a.u.   MegaHertz   Gauss  10(-4) cm-1        Axes

              Baa    -0.1423   -20.091    -7.169    -6.702  0.0000  1.0000  0.0000
     1 Na(23) Bbb    -0.1423   -20.091    -7.169    -6.702  1.0000  0.0000  0.0000
              Bcc     0.2846    40.183    14.338    13.404  0.0000  0.0000  1.0000
 
              Baa    -0.1586    -8.299    -2.961    -2.768  1.0000  0.0000  0.0000
     2 Cl(35) Bbb    -0.1586    -8.299    -2.961    -2.768  0.0000  1.0000  0.0000
              Bcc     0.3171    16.599     5.923     5.537  0.0000  0.0000  1.0000
 

 ---------------------------------------------------------------------------------

 No NMR shielding tensors so no spin-rotation constants.
 Leave Link  601 at Mon Oct 20 18:33:57 2025, MaxMem=    33554432 cpu:         0.0
 (Enter C:\G09W\l9999.exe)
 1|1|UNPC-ALEXHPENVY|SP|UB3LYP|3-21G|Cl1Na1(1-,2)|XC0RP|20-Oct-2025|0||
 #p b3lyp/3-21g||Title Card Required||-1,2|Na,0,0.,0.,1.|Cl,0,0.,0.,0.|
 |Version=IA32W-G09RevD.01|State=2-SG|HF=-617.1530787|S2=0.750389|S2-1=
 0.|S2A=0.75|RMSD=1.515e-009|Dipole=0.,0.,0.3918678|Quadrupole=1.212370
 3,1.2123703,-2.4247406,0.,0.,0.|PG=C*V [C*(Na1Cl1)]||@


 A MAN SHOULD NEVER BE ASHAMED TO OWN HE HAS BEEN IN THE WRONG
 WHICH IS BUT SAYING IN OTHER WORDS,
 THAT HE IS WISER TODAY THAN HE WAS YESTERDAY.

                          -- JONATHAN SWIFT
 Job cpu time:       0 days  0 hours  0 minutes  3.0 seconds.
 File lengths (MBytes):  RWF=      5 Int=      0 D2E=      0 Chk=      1 Scr=      1
 Normal termination of Gaussian 09 at Mon Oct 20 18:33:57 2025.
