 Entering Link 1 = C:\G09W\l1.exe PID=     15784.
  
 Copyright (c) 1988,1990,1992,1993,1995,1998,2003,2009,2013,
            Gaussian, Inc.  All Rights Reserved.
  
 This is part of the Gaussian(R) 09 program.  It is based on
 the Gaussian(R) 03 system (copyright 2003, Gaussian, Inc.),
 the Gaussian(R) 98 system (copyright 1998, Gaussian, Inc.),
 the Gaussian(R) 94 system (copyright 1995, Gaussian, Inc.),
 the Gaussian 92(TM) system (copyright 1992, Gaussian, Inc.),
 the Gaussian 90(TM) system (copyright 1990, Gaussian, Inc.),
 the Gaussian 88(TM) system (copyright 1988, Gaussian, Inc.),
 the Gaussian 86(TM) system (copyright 1986, Carnegie Mellon
 University), and the Gaussian 82(TM) system (copyright 1983,
 Carnegie Mellon University). Gaussian is a federally registered
 trademark of Gaussian, Inc.
  
 This software contains proprietary and confidential information,
 including trade secrets, belonging to Gaussian, Inc.
  
 This software is provided under written license and may be
 used, copied, transmitted, or stored only in accord with that
 written license.
  
 The following legend is applicable only to US Government
 contracts under FAR:
  
                    RESTRICTED RIGHTS LEGEND
  
 Use, reproduction and disclosure by the US Government is
 subject to restrictions as set forth in subparagraphs (a)
 and (c) of the Commercial Computer Software - Restricted
 Rights clause in FAR 52.227-19.
  
 Gaussian, Inc.
 340 Quinnipiac St., Bldg. 40, Wallingford CT 06492
  
  
 ---------------------------------------------------------------
 Warning -- This program may not be used in any manner that
 competes with the business of Gaussian, Inc. or will provide
 assistance to any competitor of Gaussian, Inc.  The licensee
 of this program is prohibited from giving any competitor of
 Gaussian, Inc. access to this program.  By using this program,
 the user acknowledges that Gaussian, Inc. is engaged in the
 business of creating and licensing software in the field of
 computational chemistry and represents and warrants to the
 licensee that it is not a competitor of Gaussian, Inc. and that
 it will not use this program in any manner prohibited above.
 ---------------------------------------------------------------
  

 Cite this work as:
 Gaussian 09, Revision D.01,
 M. J. Frisch, G. W. Trucks, H. B. Schlegel, G. E. Scuseria, 
 M. A. Robb, J. R. Cheeseman, G. Scalmani, V. Barone, B. Mennucci, 
 G. A. Petersson, H. Nakatsuji, M. Caricato, X. Li, H. P. Hratchian, 
 A. F. Izmaylov, J. Bloino, G. Zheng, J. L. Sonnenberg, M. Hada, 
 M. Ehara, K. Toyota, R. Fukuda, J. Hasegawa, M. Ishida, T. Nakajima, 
 Y. Honda, O. Kitao, H. Nakai, T. Vreven, J. A. Montgomery, Jr., 
 J. E. Peralta, F. Ogliaro, M. Bearpark, J. J. Heyd, E. Brothers, 
 K. N. Kudin, V. N. Staroverov, T. Keith, R. Kobayashi, J. Normand, 
 K. Raghavachari, A. Rendell, J. C. Burant, S. S. Iyengar, J. Tomasi, 
 M. Cossi, N. Rega, J. M. Millam, M. Klene, J. E. Knox, J. B. Cross, 
 V. Bakken, C. Adamo, J. Jaramillo, R. Gomperts, R. E. Stratmann, 
 O. Yazyev, A. J. Austin, R. Cammi, C. Pomelli, J. W. Ochterski, 
 R. L. Martin, K. Morokuma, V. G. Zakrzewski, G. A. Voth, 
 P. Salvador, J. J. Dannenberg, S. Dapprich, A. D. Daniels, 
 O. Farkas, J. B. Foresman, J. V. Ortiz, J. Cioslowski, 
 and D. J. Fox, Gaussian, Inc., Wallingford CT, 2013.
 
 ******************************************
 Gaussian 09:  IA32W-G09RevD.01 24-Apr-2013
                20-Oct-2025 
 ******************************************
 %chk=C:\Users\Xc0rp\Desktop\quimica\NaCl-1_0.chk
 --------------
 #p b3lyp/3-21g
 --------------
 1/38=1/1;
 2/12=2,17=6,18=5,40=1/2;
 3/5=5,11=2,16=1,25=1,30=1,74=-5/1,2,3;
 4//1;
 5/5=2,38=5/2;
 6/7=2,8=2,9=2,10=2,28=1/1;
 99/5=1,9=1/99;
 Leave Link    1 at Mon Oct 20 18:34:10 2025, MaxMem=           0 cpu:         0.0
 (Enter C:\G09W\l101.exe)
 -------------------
 Title Card Required
 -------------------
 Symbolic Z-matrix:
 Charge = -1 Multiplicity = 2
 Na                    0.        0.        2.5 
 Cl                    0.        0.        0. 
 
 NAtoms=      2 NQM=        2 NQMF=       0 NMMI=      0 NMMIF=      0
                NMic=       0 NMicF=      0.
                    Isotopes and Nuclear Properties:
 (Nuclear quadrupole moments (NQMom) in fm**2, nuclear magnetic moments (NMagM)
  in nuclear magnetons)

  Atom         1           2
 IAtWgt=          23          35
 AtmWgt=  22.9897697  34.9688527
 NucSpn=           3           3
 AtZEff=   0.0000000   0.0000000
 NQMom=   10.4000000  -8.1650000
 NMagM=    2.2175200   0.8218740
 AtZNuc=  11.0000000  17.0000000
 Leave Link  101 at Mon Oct 20 18:34:10 2025, MaxMem=    33554432 cpu:         0.0
 (Enter C:\G09W\l202.exe)
                          Input orientation:                          
 ---------------------------------------------------------------------
 Center     Atomic      Atomic             Coordinates (Angstroms)
 Number     Number       Type             X           Y           Z
 ---------------------------------------------------------------------
      1         11           0        0.000000    0.000000    2.500000
      2         17           0        0.000000    0.000000    0.000000
 ---------------------------------------------------------------------
 Stoichiometry    ClNa(1-,2)
 Framework group  C*V[C*(NaCl)]
 Deg. of freedom     1
 Full point group                 C*V     NOp   4
 Largest Abelian subgroup         C2V     NOp   4
 Largest concise Abelian subgroup C1      NOp   1
                         Standard orientation:                         
 ---------------------------------------------------------------------
 Center     Atomic      Atomic             Coordinates (Angstroms)
 Number     Number       Type             X           Y           Z
 ---------------------------------------------------------------------
      1         11           0        0.000000    0.000000   -1.517857
      2         17           0        0.000000    0.000000    0.982143
 ---------------------------------------------------------------------
 Rotational constants (GHZ):      0.0000000      5.8296063      5.8296063
 Leave Link  202 at Mon Oct 20 18:34:10 2025, MaxMem=    33554432 cpu:         0.0
 (Enter C:\G09W\l301.exe)
 Standard basis: 3-21G (6D, 7F)
 Ernie: Thresh=  0.10000D-02 Tol=  0.10000D-05 Strict=F.
 There are    14 symmetry adapted cartesian basis functions of A1  symmetry.
 There are     0 symmetry adapted cartesian basis functions of A2  symmetry.
 There are     6 symmetry adapted cartesian basis functions of B1  symmetry.
 There are     6 symmetry adapted cartesian basis functions of B2  symmetry.
 There are    14 symmetry adapted basis functions of A1  symmetry.
 There are     0 symmetry adapted basis functions of A2  symmetry.
 There are     6 symmetry adapted basis functions of B1  symmetry.
 There are     6 symmetry adapted basis functions of B2  symmetry.
    26 basis functions,    54 primitive gaussians,    26 cartesian basis functions
    15 alpha electrons       14 beta electrons
       nuclear repulsion energy        39.5824552025 Hartrees.
 IExCor=  402 DFT=T Ex+Corr=B3LYP ExCW=0 ScaHFX=  0.200000
 ScaDFX=  0.800000  0.720000  1.000000  0.810000 ScalE2=  1.000000  1.000000
 IRadAn=      0 IRanWt=     -1 IRanGd=            0 ICorTp=0 IEmpDi=  4
 NAtoms=    2 NActive=    2 NUniq=    2 SFac= 1.00D+00 NAtFMM=   60 NAOKFM=F Big=F
 Integral buffers will be    262144 words long.
 Raffenetti 2 integral format.
 Two-electron integral symmetry is turned on.
 Leave Link  301 at Mon Oct 20 18:34:10 2025, MaxMem=    33554432 cpu:         0.0
 (Enter C:\G09W\l302.exe)
 NPDir=0 NMtPBC=     1 NCelOv=     1 NCel=       1 NClECP=     1 NCelD=      1
         NCelK=      1 NCelE2=     1 NClLst=     1 CellRange=     0.0.
 One-electron integrals computed using PRISM.
 NBasis=    26 RedAO= T EigKep=  1.43D-01  NBF=    14     0     6     6
 NBsUse=    26 1.00D-06 EigRej= -1.00D+00 NBFU=    14     0     6     6
 Precomputing XC quadrature grid using
 IXCGrd= 4 IRadAn=           0 IRanWt=          -1 IRanGd=           0 AccXCQ= 0.00D+00.
 Generated NRdTot=       0 NPtTot=           0 NUsed=           0 NTot=          16
 NSgBfM=    25    25    25    25    25 MxSgAt=     2 MxSgA2=     2.
 Leave Link  302 at Mon Oct 20 18:34:10 2025, MaxMem=    33554432 cpu:         0.0
 (Enter C:\G09W\l303.exe)
 DipDrv:  MaxL=1.
 Leave Link  303 at Mon Oct 20 18:34:10 2025, MaxMem=    33554432 cpu:         0.0
 (Enter C:\G09W\l401.exe)
 ExpMin= 2.44D-02 ExpMax= 1.38D+03 ExpMxC= 1.38D+03 IAcc=3 IRadAn=         5 AccDes= 0.00D+00
 Harris functional with IExCor=  402 and IRadAn=       5 diagonalized for initial guess.
 HarFok:  IExCor=  402 AccDes= 0.00D+00 IRadAn=         5 IDoV= 1 UseB2=F ITyADJ=14
 ICtDFT=  3500011 ScaDFX=  1.000000  1.000000  1.000000  1.000000
 FoFCou: FMM=F IPFlag=           0 FMFlag=      100000 FMFlg1=           0
         NFxFlg=           0 DoJE=T BraDBF=F KetDBF=T FulRan=T
         wScrn=  0.000000 ICntrl=     500 IOpCl=  0 I1Cent=   200000004 NGrid=           0
         NMat0=    1 NMatS0=      1 NMatT0=    0 NMatD0=    1 NMtDS0=    0 NMtDT0=    0
 Petite list used in FoFCou.
 Harris En= -619.366281575433    
 JPrj=0 DoOrth=F DoCkMO=F.
 Initial guess orbital symmetries:
 Alpha Orbitals:
       Occupied  (SG) (SG) (SG) (SG) (PI) (PI) (SG) (SG) (PI) (PI)
                 (SG) (SG) (PI) (PI) (SG)
       Virtual   (PI) (PI) (SG) (SG) (PI) (PI) (SG) (SG) (PI) (PI)
                 (SG)
 Beta  Orbitals:
       Occupied  (SG) (SG) (SG) (SG) (PI) (PI) (SG) (SG) (PI) (PI)
                 (SG) (SG) (PI) (PI)
       Virtual   (SG) (PI) (PI) (SG) (SG) (PI) (PI) (SG) (SG) (PI)
                 (PI) (SG)
 The electronic state of the initial guess is 2-SG.
 Initial guess <Sx>= 0.0000 <Sy>= 0.0000 <Sz>= 0.5000 <S**2>= 0.7500 S= 0.5000
 Leave Link  401 at Mon Oct 20 18:34:10 2025, MaxMem=    33554432 cpu:         0.0
 (Enter C:\G09W\l502.exe)
 UHF open shell SCF:
 Using DIIS extrapolation, IDIIS=  1040.
 Integral symmetry usage will be decided dynamically.
 Keep R1 and R2 ints in memory in symmetry-blocked form, NReq=939475.
 IVT=       20802 IEndB=       20802 NGot=    33554432 MDV=    33495249
 LenX=    33495249 LenY=    33494132
 Requested convergence on RMS density matrix=1.00D-08 within 128 cycles.
 Requested convergence on MAX density matrix=1.00D-06.
 Requested convergence on             energy=1.00D-06.
 No special actions if energy rises.
 FoFCou: FMM=F IPFlag=           0 FMFlag=           0 FMFlg1=           0
         NFxFlg=           0 DoJE=F BraDBF=F KetDBF=F FulRan=T
         wScrn=  0.000000 ICntrl=     600 IOpCl=  0 I1Cent=           0 NGrid=           0
         NMat0=    1 NMatS0=    351 NMatT0=    0 NMatD0=    1 NMtDS0=    0 NMtDT0=    0
 Petite list used in FoFCou.

 Cycle   1  Pass 1  IDiag  1:
 E= -619.359829109699    
 DIIS: error= 2.31D-02 at cycle   1 NSaved=   1.
 NSaved= 1 IEnMin= 1 EnMin= -619.359829109699     IErMin= 1 ErrMin= 2.31D-02
 ErrMax= 2.31D-02  0.00D+00 EMaxC= 1.00D-01 BMatC= 6.46D-02 BMatP= 6.46D-02
 IDIUse=3 WtCom= 7.69D-01 WtEn= 2.31D-01
 Coeff-Com:  0.100D+01
 Coeff-En:   0.100D+01
 Coeff:      0.100D+01
 Gap=     0.082 Goal=   None    Shift=    0.000
 Gap=     0.084 Goal=   None    Shift=    0.000
 GapD=    0.082 DampG=0.500 DampE=0.500 DampFc=0.2500 IDamp=-1.
 Damping current iteration by 2.50D-01
 RMSDP=2.11D-02 MaxDP=2.24D-01              OVMax= 0.00D+00

 Cycle   2  Pass 1  IDiag  1:
 E= -619.369523707394     Delta-E=       -0.009694597695 Rises=F Damp=T
 DIIS: error= 1.19D-02 at cycle   2 NSaved=   2.
 NSaved= 2 IEnMin= 2 EnMin= -619.369523707394     IErMin= 2 ErrMin= 1.19D-02
 ErrMax= 1.19D-02  0.00D+00 EMaxC= 1.00D-01 BMatC= 1.84D-02 BMatP= 6.46D-02
 IDIUse=3 WtCom= 8.81D-01 WtEn= 1.19D-01
 Coeff-Com: -0.746D+00 0.175D+01
 Coeff-En:   0.000D+00 0.100D+01
 Coeff:     -0.657D+00 0.166D+01
 Gap=     0.089 Goal=   None    Shift=    0.000
 Gap=     0.149 Goal=   None    Shift=    0.000
 RMSDP=1.13D-02 MaxDP=1.91D-01 DE=-9.69D-03 OVMax= 0.00D+00

 Cycle   3  Pass 1  IDiag  1:
 E= -619.391503844178     Delta-E=       -0.021980136784 Rises=F Damp=F
 DIIS: error= 8.60D-04 at cycle   3 NSaved=   3.
 NSaved= 3 IEnMin= 3 EnMin= -619.391503844178     IErMin= 3 ErrMin= 8.60D-04
 ErrMax= 8.60D-04  0.00D+00 EMaxC= 1.00D-01 BMatC= 1.20D-04 BMatP= 1.84D-02
 IDIUse=3 WtCom= 9.91D-01 WtEn= 8.60D-03
 Coeff-Com: -0.727D-01 0.105D+00 0.968D+00
 Coeff-En:   0.000D+00 0.000D+00 0.100D+01
 Coeff:     -0.721D-01 0.104D+00 0.968D+00
 Gap=     0.084 Goal=   None    Shift=    0.000
 Gap=     0.161 Goal=   None    Shift=    0.000
 RMSDP=1.91D-03 MaxDP=3.07D-02 DE=-2.20D-02 OVMax= 0.00D+00

 Cycle   4  Pass 1  IDiag  1:
 E= -619.391721409181     Delta-E=       -0.000217565003 Rises=F Damp=F
 DIIS: error= 2.31D-04 at cycle   4 NSaved=   4.
 NSaved= 4 IEnMin= 4 EnMin= -619.391721409181     IErMin= 4 ErrMin= 2.31D-04
 ErrMax= 2.31D-04  0.00D+00 EMaxC= 1.00D-01 BMatC= 1.10D-05 BMatP= 1.20D-04
 IDIUse=3 WtCom= 9.98D-01 WtEn= 2.31D-03
 Coeff-Com: -0.719D-02-0.218D-03-0.255D+00 0.126D+01
 Coeff-En:   0.000D+00 0.000D+00 0.000D+00 0.100D+01
 Coeff:     -0.717D-02-0.217D-03-0.254D+00 0.126D+01
 Gap=     0.084 Goal=   None    Shift=    0.000
 Gap=     0.162 Goal=   None    Shift=    0.000
 RMSDP=6.44D-04 MaxDP=1.11D-02 DE=-2.18D-04 OVMax= 0.00D+00

 Cycle   5  Pass 1  IDiag  1:
 E= -619.391738167739     Delta-E=       -0.000016758558 Rises=F Damp=F
 DIIS: error= 1.50D-05 at cycle   5 NSaved=   5.
 NSaved= 5 IEnMin= 5 EnMin= -619.391738167739     IErMin= 5 ErrMin= 1.50D-05
 ErrMax= 1.50D-05  0.00D+00 EMaxC= 1.00D-01 BMatC= 3.19D-08 BMatP= 1.10D-05
 IDIUse=1 WtCom= 1.00D+00 WtEn= 0.00D+00
 Coeff-Com: -0.612D-03 0.164D-02 0.191D-01-0.107D+00 0.109D+01
 Coeff:     -0.612D-03 0.164D-02 0.191D-01-0.107D+00 0.109D+01
 Gap=     0.084 Goal=   None    Shift=    0.000
 Gap=     0.162 Goal=   None    Shift=    0.000
 RMSDP=3.09D-05 MaxDP=5.41D-04 DE=-1.68D-05 OVMax= 0.00D+00

 Cycle   6  Pass 1  IDiag  1:
 E= -619.391738212231     Delta-E=       -0.000000044492 Rises=F Damp=F
 DIIS: error= 2.35D-06 at cycle   6 NSaved=   6.
 NSaved= 6 IEnMin= 6 EnMin= -619.391738212231     IErMin= 6 ErrMin= 2.35D-06
 ErrMax= 2.35D-06  0.00D+00 EMaxC= 1.00D-01 BMatC= 4.01D-10 BMatP= 3.19D-08
 IDIUse=1 WtCom= 1.00D+00 WtEn= 0.00D+00
 Coeff-Com:  0.253D-03-0.319D-03 0.642D-03-0.636D-02-0.836D-01 0.109D+01
 Coeff:      0.253D-03-0.319D-03 0.642D-03-0.636D-02-0.836D-01 0.109D+01
 Gap=     0.084 Goal=   None    Shift=    0.000
 Gap=     0.162 Goal=   None    Shift=    0.000
 RMSDP=5.43D-06 MaxDP=1.00D-04 DE=-4.45D-08 OVMax= 0.00D+00

 Cycle   7  Pass 1  IDiag  1:
 E= -619.391738213200     Delta-E=       -0.000000000969 Rises=F Damp=F
 DIIS: error= 5.77D-07 at cycle   7 NSaved=   7.
 NSaved= 7 IEnMin= 7 EnMin= -619.391738213200     IErMin= 7 ErrMin= 5.77D-07
 ErrMax= 5.77D-07  0.00D+00 EMaxC= 1.00D-01 BMatC= 2.63D-11 BMatP= 4.01D-10
 IDIUse=1 WtCom= 1.00D+00 WtEn= 0.00D+00
 Coeff-Com:  0.908D-05-0.266D-04-0.457D-03 0.323D-02-0.891D-02-0.149D+00
 Coeff-Com:  0.116D+01
 Coeff:      0.908D-05-0.266D-04-0.457D-03 0.323D-02-0.891D-02-0.149D+00
 Coeff:      0.116D+01
 Gap=     0.084 Goal=   None    Shift=    0.000
 Gap=     0.162 Goal=   None    Shift=    0.000
 RMSDP=4.02D-07 MaxDP=5.28D-06 DE=-9.69D-10 OVMax= 0.00D+00

 Cycle   8  Pass 1  IDiag  1:
 E= -619.391738213218     Delta-E=       -0.000000000018 Rises=F Damp=F
 DIIS: error= 4.21D-08 at cycle   8 NSaved=   8.
 NSaved= 8 IEnMin= 8 EnMin= -619.391738213218     IErMin= 8 ErrMin= 4.21D-08
 ErrMax= 4.21D-08  0.00D+00 EMaxC= 1.00D-01 BMatC= 2.42D-13 BMatP= 2.63D-11
 IDIUse=1 WtCom= 1.00D+00 WtEn= 0.00D+00
 Coeff-Com: -0.843D-05 0.119D-04 0.334D-04-0.202D-03 0.340D-02-0.110D-01
 Coeff-Com: -0.133D+00 0.114D+01
 Coeff:     -0.843D-05 0.119D-04 0.334D-04-0.202D-03 0.340D-02-0.110D-01
 Coeff:     -0.133D+00 0.114D+01
 Gap=     0.084 Goal=   None    Shift=    0.000
 Gap=     0.162 Goal=   None    Shift=    0.000
 RMSDP=4.76D-08 MaxDP=5.91D-07 DE=-1.82D-11 OVMax= 0.00D+00

 Cycle   9  Pass 1  IDiag  1:
 E= -619.391738213218     Delta-E=        0.000000000001 Rises=F Damp=F
 DIIS: error= 6.79D-09 at cycle   9 NSaved=   9.
 NSaved= 9 IEnMin= 8 EnMin= -619.391738213218     IErMin= 9 ErrMin= 6.79D-09
 ErrMax= 6.79D-09  0.00D+00 EMaxC= 1.00D-01 BMatC= 5.75D-15 BMatP= 2.42D-13
 IDIUse=1 WtCom= 1.00D+00 WtEn= 0.00D+00
 Coeff-Com: -0.410D-07-0.897D-08-0.154D-05-0.805D-06-0.270D-03 0.330D-02
 Coeff-Com: -0.358D-02-0.997D-01 0.110D+01
 Coeff:     -0.410D-07-0.897D-08-0.154D-05-0.805D-06-0.270D-03 0.330D-02
 Coeff:     -0.358D-02-0.997D-01 0.110D+01
 Gap=     0.084 Goal=   None    Shift=    0.000
 Gap=     0.162 Goal=   None    Shift=    0.000
 RMSDP=1.03D-08 MaxDP=1.67D-07 DE= 6.82D-13 OVMax= 0.00D+00

 Cycle  10  Pass 1  IDiag  1:
 E= -619.391738213217     Delta-E=        0.000000000000 Rises=F Damp=F
 DIIS: error= 8.04D-10 at cycle  10 NSaved=  10.
 NSaved=10 IEnMin= 8 EnMin= -619.391738213218     IErMin=10 ErrMin= 8.04D-10
 ErrMax= 8.04D-10  0.00D+00 EMaxC= 1.00D-01 BMatC= 9.40D-17 BMatP= 5.75D-15
 IDIUse=1 WtCom= 1.00D+00 WtEn= 0.00D+00
 Coeff-Com: -0.155D-07 0.225D-07 0.186D-06-0.431D-06 0.524D-05-0.168D-03
 Coeff-Com:  0.648D-03 0.451D-02-0.130D+00 0.112D+01
 Coeff:     -0.155D-07 0.225D-07 0.186D-06-0.431D-06 0.524D-05-0.168D-03
 Coeff:      0.648D-03 0.451D-02-0.130D+00 0.112D+01
 Gap=     0.084 Goal=   None    Shift=    0.000
 Gap=     0.162 Goal=   None    Shift=    0.000
 RMSDP=9.71D-10 MaxDP=2.09D-08 DE= 2.27D-13 OVMax= 0.00D+00

 SCF Done:  E(UB3LYP) =  -619.391738213     A.U. after   10 cycles
            NFock= 10  Conv=0.97D-09     -V/T= 2.0041
 <Sx>= 0.0000 <Sy>= 0.0000 <Sz>= 0.5000 <S**2>= 0.7502 S= 0.5001
 <L.S>= 0.000000000000E+00
 KE= 6.168520811959D+02 PE=-1.562219639344D+03 EE= 2.863933647320D+02
 Annihilation of the first spin contaminant:
 S**2 before annihilation     0.7502,   after     0.7500
 Leave Link  502 at Mon Oct 20 18:34:11 2025, MaxMem=    33554432 cpu:         0.0
 (Enter C:\G09W\l601.exe)
 Copying SCF densities to generalized density rwf, IOpCl= 1 IROHF=0.

 **********************************************************************

            Population analysis using the SCF density.

 **********************************************************************

 Orbital symmetries:
 Alpha Orbitals:
       Occupied  (SG) (SG) (SG) (SG) (PI) (PI) (SG) (PI) (PI) (SG)
                 (SG) (SG) (PI) (PI) (SG)
       Virtual   (PI) (PI) (SG) (SG) (PI) (PI) (SG) (SG) (PI) (PI)
                 (SG)
 Beta  Orbitals:
       Occupied  (SG) (SG) (SG) (SG) (PI) (PI) (SG) (PI) (PI) (SG)
                 (SG) (SG) (PI) (PI)
       Virtual   (SG) (PI) (PI) (SG) (SG) (PI) (PI) (SG) (SG) (PI)
                 (PI) (SG)
 The electronic state is 2-SG.
 Alpha  occ. eigenvalues -- -100.55016 -38.04979  -9.11453  -6.88231  -6.88029
 Alpha  occ. eigenvalues --   -6.88029  -2.02853  -0.95514  -0.95514  -0.95357
 Alpha  occ. eigenvalues --   -0.53391  -0.09402  -0.07750  -0.07750   0.02778
 Alpha virt. eigenvalues --    0.11165   0.11165   0.13802   0.18996   0.22276
 Alpha virt. eigenvalues --    0.22276   0.28492   0.79554   0.82695   0.82695
 Alpha virt. eigenvalues --    0.94321
  Beta  occ. eigenvalues -- -100.54996 -38.04893  -9.11433  -6.88170  -6.88020
  Beta  occ. eigenvalues --   -6.88020  -2.02692  -0.95417  -0.95417  -0.95204
  Beta  occ. eigenvalues --   -0.53278  -0.09170  -0.07727  -0.07727
  Beta virt. eigenvalues --    0.08453   0.12195   0.12195   0.14328   0.20480
  Beta virt. eigenvalues --    0.23199   0.23199   0.29400   0.79626   0.82770
  Beta virt. eigenvalues --    0.82770   0.94578
          Condensed to atoms (all electrons):
               1          2
     1  Na  11.106826   0.153100
     2  Cl   0.153100  17.586975
          Atomic-Atomic Spin Densities.
               1          2
     1  Na   0.997507  -0.014005
     2  Cl  -0.014005   0.030503
 Mulliken charges and spin densities:
               1          2
     1  Na  -0.259926   0.983502
     2  Cl  -0.740074   0.016498
 Sum of Mulliken charges =  -1.00000   1.00000
 Mulliken charges and spin densities with hydrogens summed into heavy atoms:
               1          2
     1  Na  -0.259926   0.983502
     2  Cl  -0.740074   0.016498
 Electronic spatial extent (au):  <R**2>=            240.1596
 Charge=             -1.0000 electrons
 Dipole moment (field-independent basis, Debye):
    X=              0.0000    Y=              0.0000    Z=              3.1826  Tot=              3.1826
 Quadrupole moment (field-independent basis, Debye-Ang):
   XX=            -32.0009   YY=            -32.0009   ZZ=            -58.5301
   XY=              0.0000   XZ=              0.0000   YZ=              0.0000
 Traceless Quadrupole moment (field-independent basis, Debye-Ang):
   XX=              8.8431   YY=              8.8431   ZZ=            -17.6861
   XY=              0.0000   XZ=              0.0000   YZ=              0.0000
 Octapole moment (field-independent basis, Debye-Ang**2):
  XXX=              0.0000  YYY=              0.0000  ZZZ=            133.5570  XYY=              0.0000
  XXY=              0.0000  XXZ=             25.0707  XZZ=              0.0000  YZZ=              0.0000
  YYZ=             25.0707  XYZ=              0.0000
 Hexadecapole moment (field-independent basis, Debye-Ang**3):
 XXXX=           -129.9223 YYYY=           -129.9223 ZZZZ=           -903.1461 XXXY=              0.0000
 XXXZ=              0.0000 YYYX=              0.0000 YYYZ=              0.0000 ZZZX=              0.0000
 ZZZY=              0.0000 XXYY=            -43.3074 XXZZ=           -148.3518 YYZZ=           -148.3518
 XXYZ=              0.0000 YYXZ=              0.0000 ZZXY=              0.0000
 N-N= 3.958245520253D+01 E-N=-1.562219639283D+03  KE= 6.168520811959D+02
 Symmetry A1   KE= 5.044210013156D+02
 Symmetry A2   KE= 0.000000000000D+00
 Symmetry B1   KE= 5.621553994016D+01
 Symmetry B2   KE= 5.621553994016D+01
                          Isotropic Fermi Contact Couplings
        Atom                 a.u.       MegaHertz       Gauss      10(-4) cm-1
     1  Na(23)             0.21611     255.66268      91.22680      85.27989
     2  Cl(35)             0.02291      10.04705       3.58504       3.35133
 --------------------------------------------------------
       Center         ----  Spin Dipole Couplings  ----
                      3XX-RR        3YY-RR        3ZZ-RR
 --------------------------------------------------------
     1   Atom       -0.023872     -0.023872      0.047745
     2   Atom       -0.081411     -0.081411      0.162822
 --------------------------------------------------------
                        XY            XZ            YZ
 --------------------------------------------------------
     1   Atom        0.000000      0.000000      0.000000
     2   Atom        0.000000      0.000000      0.000000
 --------------------------------------------------------


 ---------------------------------------------------------------------------------
              Anisotropic Spin Dipole Couplings in Principal Axis System
 ---------------------------------------------------------------------------------

       Atom             a.u.   MegaHertz   Gauss  10(-4) cm-1        Axes

              Baa    -0.0239    -3.371    -1.203    -1.124  1.0000  0.0000  0.0000
     1 Na(23) Bbb    -0.0239    -3.371    -1.203    -1.124  0.0000  1.0000  0.0000
              Bcc     0.0477     6.742     2.406     2.249  0.0000  0.0000  1.0000
 
              Baa    -0.0814    -4.261    -1.520    -1.421  0.0000  1.0000  0.0000
     2 Cl(35) Bbb    -0.0814    -4.261    -1.520    -1.421  1.0000  0.0000  0.0000
              Bcc     0.1628     8.522     3.041     2.843  0.0000  0.0000  1.0000
 

 ---------------------------------------------------------------------------------

 No NMR shielding tensors so no spin-rotation constants.
 Leave Link  601 at Mon Oct 20 18:34:12 2025, MaxMem=    33554432 cpu:         1.0
 (Enter C:\G09W\l9999.exe)
 1|1|UNPC-ALEXHPENVY|SP|UB3LYP|3-21G|Cl1Na1(1-,2)|XC0RP|20-Oct-2025|0||
 #p b3lyp/3-21g||Title Card Required||-1,2|Na,0,0.,0.,2.5|Cl,0,0.,0.,0.
 ||Version=IA32W-G09RevD.01|State=2-SG|HF=-619.3917382|S2=0.750206|S2-1
 =0.|S2A=0.75|RMSD=9.712e-010|Dipole=0.,0.,-1.2521345|Quadrupole=6.5746
 055,6.5746055,-13.1492111,0.,0.,0.|PG=C*V [C*(Na1Cl1)]||@


 A MAN SHOULD NEVER BE ASHAMED TO OWN HE HAS BEEN IN THE WRONG
 WHICH IS BUT SAYING IN OTHER WORDS,
 THAT HE IS WISER TODAY THAN HE WAS YESTERDAY.

                          -- JONATHAN SWIFT
 Job cpu time:       0 days  0 hours  0 minutes  2.0 seconds.
 File lengths (MBytes):  RWF=      5 Int=      0 D2E=      0 Chk=      1 Scr=      1
 Normal termination of Gaussian 09 at Mon Oct 20 18:34:12 2025.
