 Entering Link 1 = C:\G09W\l1.exe PID=      9780.
  
 Copyright (c) 1988,1990,1992,1993,1995,1998,2003,2009,2013,
            Gaussian, Inc.  All Rights Reserved.
  
 This is part of the Gaussian(R) 09 program.  It is based on
 the Gaussian(R) 03 system (copyright 2003, Gaussian, Inc.),
 the Gaussian(R) 98 system (copyright 1998, Gaussian, Inc.),
 the Gaussian(R) 94 system (copyright 1995, Gaussian, Inc.),
 the Gaussian 92(TM) system (copyright 1992, Gaussian, Inc.),
 the Gaussian 90(TM) system (copyright 1990, Gaussian, Inc.),
 the Gaussian 88(TM) system (copyright 1988, Gaussian, Inc.),
 the Gaussian 86(TM) system (copyright 1986, Carnegie Mellon
 University), and the Gaussian 82(TM) system (copyright 1983,
 Carnegie Mellon University). Gaussian is a federally registered
 trademark of Gaussian, Inc.
  
 This software contains proprietary and confidential information,
 including trade secrets, belonging to Gaussian, Inc.
  
 This software is provided under written license and may be
 used, copied, transmitted, or stored only in accord with that
 written license.
  
 The following legend is applicable only to US Government
 contracts under FAR:
  
                    RESTRICTED RIGHTS LEGEND
  
 Use, reproduction and disclosure by the US Government is
 subject to restrictions as set forth in subparagraphs (a)
 and (c) of the Commercial Computer Software - Restricted
 Rights clause in FAR 52.227-19.
  
 Gaussian, Inc.
 340 Quinnipiac St., Bldg. 40, Wallingford CT 06492
  
  
 ---------------------------------------------------------------
 Warning -- This program may not be used in any manner that
 competes with the business of Gaussian, Inc. or will provide
 assistance to any competitor of Gaussian, Inc.  The licensee
 of this program is prohibited from giving any competitor of
 Gaussian, Inc. access to this program.  By using this program,
 the user acknowledges that Gaussian, Inc. is engaged in the
 business of creating and licensing software in the field of
 computational chemistry and represents and warrants to the
 licensee that it is not a competitor of Gaussian, Inc. and that
 it will not use this program in any manner prohibited above.
 ---------------------------------------------------------------
  

 Cite this work as:
 Gaussian 09, Revision D.01,
 M. J. Frisch, G. W. Trucks, H. B. Schlegel, G. E. Scuseria, 
 M. A. Robb, J. R. Cheeseman, G. Scalmani, V. Barone, B. Mennucci, 
 G. A. Petersson, H. Nakatsuji, M. Caricato, X. Li, H. P. Hratchian, 
 A. F. Izmaylov, J. Bloino, G. Zheng, J. L. Sonnenberg, M. Hada, 
 M. Ehara, K. Toyota, R. Fukuda, J. Hasegawa, M. Ishida, T. Nakajima, 
 Y. Honda, O. Kitao, H. Nakai, T. Vreven, J. A. Montgomery, Jr., 
 J. E. Peralta, F. Ogliaro, M. Bearpark, J. J. Heyd, E. Brothers, 
 K. N. Kudin, V. N. Staroverov, T. Keith, R. Kobayashi, J. Normand, 
 K. Raghavachari, A. Rendell, J. C. Burant, S. S. Iyengar, J. Tomasi, 
 M. Cossi, N. Rega, J. M. Millam, M. Klene, J. E. Knox, J. B. Cross, 
 V. Bakken, C. Adamo, J. Jaramillo, R. Gomperts, R. E. Stratmann, 
 O. Yazyev, A. J. Austin, R. Cammi, C. Pomelli, J. W. Ochterski, 
 R. L. Martin, K. Morokuma, V. G. Zakrzewski, G. A. Voth, 
 P. Salvador, J. J. Dannenberg, S. Dapprich, A. D. Daniels, 
 O. Farkas, J. B. Foresman, J. V. Ortiz, J. Cioslowski, 
 and D. J. Fox, Gaussian, Inc., Wallingford CT, 2013.
 
 ******************************************
 Gaussian 09:  IA32W-G09RevD.01 24-Apr-2013
                20-Oct-2025 
 ******************************************
 %chk=C:\Users\Xc0rp\Desktop\quimica\NaCl-1_0.chk
 --------------
 #p b3lyp/3-21g
 --------------
 1/38=1/1;
 2/12=2,17=6,18=5,40=1/2;
 3/5=5,11=2,16=1,25=1,30=1,74=-5/1,2,3;
 4//1;
 5/5=2,38=5/2;
 6/7=2,8=2,9=2,10=2,28=1/1;
 99/5=1,9=1/99;
 Leave Link    1 at Mon Oct 20 18:34:19 2025, MaxMem=           0 cpu:         0.0
 (Enter C:\G09W\l101.exe)
 -------------------
 Title Card Required
 -------------------
 Symbolic Z-matrix:
 Charge = -1 Multiplicity = 2
 Na                    0.        0.        5. 
 Cl                    0.        0.        0. 
 
 NAtoms=      2 NQM=        2 NQMF=       0 NMMI=      0 NMMIF=      0
                NMic=       0 NMicF=      0.
                    Isotopes and Nuclear Properties:
 (Nuclear quadrupole moments (NQMom) in fm**2, nuclear magnetic moments (NMagM)
  in nuclear magnetons)

  Atom         1           2
 IAtWgt=          23          35
 AtmWgt=  22.9897697  34.9688527
 NucSpn=           3           3
 AtZEff=   0.0000000   0.0000000
 NQMom=   10.4000000  -8.1650000
 NMagM=    2.2175200   0.8218740
 AtZNuc=  11.0000000  17.0000000
 Leave Link  101 at Mon Oct 20 18:34:19 2025, MaxMem=    33554432 cpu:         0.0
 (Enter C:\G09W\l202.exe)
                          Input orientation:                          
 ---------------------------------------------------------------------
 Center     Atomic      Atomic             Coordinates (Angstroms)
 Number     Number       Type             X           Y           Z
 ---------------------------------------------------------------------
      1         11           0        0.000000    0.000000    5.000000
      2         17           0        0.000000    0.000000    0.000000
 ---------------------------------------------------------------------
 Stoichiometry    ClNa(1-,2)
 Framework group  C*V[C*(NaCl)]
 Deg. of freedom     1
 Full point group                 C*V     NOp   4
 Largest Abelian subgroup         C2V     NOp   4
 Largest concise Abelian subgroup C1      NOp   1
                         Standard orientation:                         
 ---------------------------------------------------------------------
 Center     Atomic      Atomic             Coordinates (Angstroms)
 Number     Number       Type             X           Y           Z
 ---------------------------------------------------------------------
      1         11           0        0.000000    0.000000   -3.035714
      2         17           0        0.000000    0.000000    1.964286
 ---------------------------------------------------------------------
 Rotational constants (GHZ):      0.0000000      1.4574016      1.4574016
 Leave Link  202 at Mon Oct 20 18:34:19 2025, MaxMem=    33554432 cpu:         0.0
 (Enter C:\G09W\l301.exe)
 Standard basis: 3-21G (6D, 7F)
 Ernie: Thresh=  0.10000D-02 Tol=  0.10000D-05 Strict=F.
 There are    14 symmetry adapted cartesian basis functions of A1  symmetry.
 There are     0 symmetry adapted cartesian basis functions of A2  symmetry.
 There are     6 symmetry adapted cartesian basis functions of B1  symmetry.
 There are     6 symmetry adapted cartesian basis functions of B2  symmetry.
 There are    14 symmetry adapted basis functions of A1  symmetry.
 There are     0 symmetry adapted basis functions of A2  symmetry.
 There are     6 symmetry adapted basis functions of B1  symmetry.
 There are     6 symmetry adapted basis functions of B2  symmetry.
    26 basis functions,    54 primitive gaussians,    26 cartesian basis functions
    15 alpha electrons       14 beta electrons
       nuclear repulsion energy        19.7912276013 Hartrees.
 IExCor=  402 DFT=T Ex+Corr=B3LYP ExCW=0 ScaHFX=  0.200000
 ScaDFX=  0.800000  0.720000  1.000000  0.810000 ScalE2=  1.000000  1.000000
 IRadAn=      0 IRanWt=     -1 IRanGd=            0 ICorTp=0 IEmpDi=  4
 NAtoms=    2 NActive=    2 NUniq=    2 SFac= 1.00D+00 NAtFMM=   60 NAOKFM=F Big=F
 Integral buffers will be    262144 words long.
 Raffenetti 2 integral format.
 Two-electron integral symmetry is turned on.
 Leave Link  301 at Mon Oct 20 18:34:19 2025, MaxMem=    33554432 cpu:         0.0
 (Enter C:\G09W\l302.exe)
 NPDir=0 NMtPBC=     1 NCelOv=     1 NCel=       1 NClECP=     1 NCelD=      1
         NCelK=      1 NCelE2=     1 NClLst=     1 CellRange=     0.0.
 One-electron integrals computed using PRISM.
 NBasis=    26 RedAO= T EigKep=  2.17D-01  NBF=    14     0     6     6
 NBsUse=    26 1.00D-06 EigRej= -1.00D+00 NBFU=    14     0     6     6
 Precomputing XC quadrature grid using
 IXCGrd= 4 IRadAn=           0 IRanWt=          -1 IRanGd=           0 AccXCQ= 0.00D+00.
 Generated NRdTot=       0 NPtTot=           0 NUsed=           0 NTot=          16
 NSgBfM=    24    24    24    24    24 MxSgAt=     2 MxSgA2=     2.
 Leave Link  302 at Mon Oct 20 18:34:19 2025, MaxMem=    33554432 cpu:         0.0
 (Enter C:\G09W\l303.exe)
 DipDrv:  MaxL=1.
 Leave Link  303 at Mon Oct 20 18:34:19 2025, MaxMem=    33554432 cpu:         0.0
 (Enter C:\G09W\l401.exe)
 ExpMin= 2.44D-02 ExpMax= 1.38D+03 ExpMxC= 1.38D+03 IAcc=3 IRadAn=         5 AccDes= 0.00D+00
 Harris functional with IExCor=  402 and IRadAn=       5 diagonalized for initial guess.
 HarFok:  IExCor=  402 AccDes= 0.00D+00 IRadAn=         5 IDoV= 1 UseB2=F ITyADJ=14
 ICtDFT=  3500011 ScaDFX=  1.000000  1.000000  1.000000  1.000000
 FoFCou: FMM=F IPFlag=           0 FMFlag=      100000 FMFlg1=           0
         NFxFlg=           0 DoJE=T BraDBF=F KetDBF=T FulRan=T
         wScrn=  0.000000 ICntrl=     500 IOpCl=  0 I1Cent=   200000004 NGrid=           0
         NMat0=    1 NMatS0=      1 NMatT0=    0 NMatD0=    1 NMtDS0=    0 NMtDT0=    0
 Petite list used in FoFCou.
 Harris En= -619.357832390403    
 JPrj=0 DoOrth=F DoCkMO=F.
 Initial guess orbital symmetries:
 Alpha Orbitals:
       Occupied  (SG) (SG) (SG) (SG) (PI) (PI) (SG) (SG) (PI) (PI)
                 (SG) (SG) (PI) (PI) (SG)
       Virtual   (PI) (PI) (SG) (SG) (SG) (PI) (PI) (SG) (PI) (PI)
                 (SG)
 Beta  Orbitals:
       Occupied  (SG) (SG) (SG) (SG) (PI) (PI) (SG) (SG) (PI) (PI)
                 (SG) (SG) (PI) (PI)
       Virtual   (SG) (PI) (PI) (SG) (SG) (SG) (PI) (PI) (SG) (PI)
                 (PI) (SG)
 The electronic state of the initial guess is 2-SG.
 Initial guess <Sx>= 0.0000 <Sy>= 0.0000 <Sz>= 0.5000 <S**2>= 0.7500 S= 0.5000
 Leave Link  401 at Mon Oct 20 18:34:20 2025, MaxMem=    33554432 cpu:         1.0
 (Enter C:\G09W\l502.exe)
 UHF open shell SCF:
 Using DIIS extrapolation, IDIIS=  1040.
 Integral symmetry usage will be decided dynamically.
 Keep R1 and R2 ints in memory in symmetry-blocked form, NReq=939475.
 IVT=       20802 IEndB=       20802 NGot=    33554432 MDV=    33495249
 LenX=    33495249 LenY=    33494132
 Requested convergence on RMS density matrix=1.00D-08 within 128 cycles.
 Requested convergence on MAX density matrix=1.00D-06.
 Requested convergence on             energy=1.00D-06.
 No special actions if energy rises.
 FoFCou: FMM=F IPFlag=           0 FMFlag=           0 FMFlg1=           0
         NFxFlg=           0 DoJE=F BraDBF=F KetDBF=F FulRan=T
         wScrn=  0.000000 ICntrl=     600 IOpCl=  0 I1Cent=           0 NGrid=           0
         NMat0=    1 NMatS0=    351 NMatT0=    0 NMatD0=    1 NMtDS0=    0 NMtDT0=    0
 Petite list used in FoFCou.

 Cycle   1  Pass 1  IDiag  1:
 E= -619.306611329575    
 DIIS: error= 2.97D-02 at cycle   1 NSaved=   1.
 NSaved= 1 IEnMin= 1 EnMin= -619.306611329575     IErMin= 1 ErrMin= 2.97D-02
 ErrMax= 2.97D-02  0.00D+00 EMaxC= 1.00D-01 BMatC= 8.64D-02 BMatP= 8.64D-02
 IDIUse=3 WtCom= 7.03D-01 WtEn= 2.97D-01
 Coeff-Com:  0.100D+01
 Coeff-En:   0.100D+01
 Coeff:      0.100D+01
 Gap=     0.012 Goal=   None    Shift=    0.000
 Gap=     0.000 Goal=   None    Shift=    0.000
 GapD=    0.000 DampG=0.250 DampE=0.500 DampFc=0.2500 IDamp=-1.
 Damping current iteration by 2.50D-01
 RMSDP=4.96D-02 MaxDP=5.03D-01              OVMax= 7.54D-03

 Cycle   2  Pass 1  IDiag  1:
 E= -619.210780690668     Delta-E=        0.095830638907 Rises=F Damp=T
 DIIS: error= 1.90D-02 at cycle   2 NSaved=   2.
 NSaved= 2 IEnMin= 1 EnMin= -619.306611329575     IErMin= 2 ErrMin= 1.90D-02
 ErrMax= 1.90D-02  0.00D+00 EMaxC= 1.00D-01 BMatC= 3.41D-02 BMatP= 8.64D-02
 IDIUse=3 WtCom= 8.10D-01 WtEn= 1.90D-01
 Coeff-Com:  0.332D+00 0.668D+00
 Coeff-En:   0.862D+00 0.138D+00
 Coeff:      0.433D+00 0.567D+00
 Gap=     0.078 Goal=   None    Shift=    0.000
 Gap=    -0.109 Goal=   None    Shift=    0.000
 RMSDP=1.26D-02 MaxDP=1.30D-01 DE= 9.58D-02 OVMax= 1.04D-03

 Cycle   3  Pass 1  IDiag  1:
 E= -619.334125553000     Delta-E=       -0.123344862332 Rises=F Damp=F
 DIIS: error= 1.02D-02 at cycle   3 NSaved=   3.
 NSaved= 3 IEnMin= 3 EnMin= -619.334125553000     IErMin= 3 ErrMin= 1.02D-02
 ErrMax= 1.02D-02  0.00D+00 EMaxC= 1.00D-01 BMatC= 1.43D-02 BMatP= 3.41D-02
 IDIUse=3 WtCom= 8.98D-01 WtEn= 1.02D-01
 Coeff-Com: -0.310D+00 0.288D+00 0.102D+01
 Coeff-En:   0.000D+00 0.000D+00 0.100D+01
 Coeff:     -0.279D+00 0.258D+00 0.102D+01
 Gap=     0.095 Goal=   None    Shift=    0.000
 Gap=     0.074 Goal=   None    Shift=    0.000
 RMSDP=3.33D-03 MaxDP=4.56D-02 DE=-1.23D-01 OVMax= 0.00D+00

 Cycle   4  Pass 1  IDiag  1:
 E= -619.340502510800     Delta-E=       -0.006376957800 Rises=F Damp=F
 DIIS: error= 5.05D-03 at cycle   4 NSaved=   4.
 NSaved= 4 IEnMin= 4 EnMin= -619.340502510800     IErMin= 4 ErrMin= 5.05D-03
 ErrMax= 5.05D-03  0.00D+00 EMaxC= 1.00D-01 BMatC= 3.60D-03 BMatP= 1.43D-02
 IDIUse=3 WtCom= 9.50D-01 WtEn= 5.05D-02
 Coeff-Com: -0.713D-01 0.815D-01-0.494D+00 0.148D+01
 Coeff-En:   0.000D+00 0.000D+00 0.000D+00 0.100D+01
 Coeff:     -0.677D-01 0.774D-01-0.469D+00 0.146D+01
 Gap=     0.093 Goal=   None    Shift=    0.000
 Gap=     0.051 Goal=   None    Shift=    0.000
 RMSDP=2.98D-03 MaxDP=3.98D-02 DE=-6.38D-03 OVMax= 0.00D+00

 Cycle   5  Pass 1  IDiag  1:
 E= -619.342931475026     Delta-E=       -0.002428964226 Rises=F Damp=F
 DIIS: error= 1.03D-03 at cycle   5 NSaved=   5.
 NSaved= 5 IEnMin= 5 EnMin= -619.342931475026     IErMin= 5 ErrMin= 1.03D-03
 ErrMax= 1.03D-03  0.00D+00 EMaxC= 1.00D-01 BMatC= 1.68D-04 BMatP= 3.60D-03
 IDIUse=3 WtCom= 9.90D-01 WtEn= 1.03D-02
 Coeff-Com:  0.123D-01-0.568D-02 0.236D+00-0.872D+00 0.163D+01
 Coeff-En:   0.000D+00 0.000D+00 0.000D+00 0.000D+00 0.100D+01
 Coeff:      0.122D-01-0.563D-02 0.233D+00-0.863D+00 0.162D+01
 Gap=     0.089 Goal=   None    Shift=    0.000
 Gap=     0.047 Goal=   None    Shift=    0.000
 RMSDP=1.66D-03 MaxDP=1.84D-02 DE=-2.43D-03 OVMax= 0.00D+00

 Cycle   6  Pass 1  IDiag  1:
 E= -619.343161908600     Delta-E=       -0.000230433574 Rises=F Damp=F
 DIIS: error= 5.87D-04 at cycle   6 NSaved=   6.
 NSaved= 6 IEnMin= 6 EnMin= -619.343161908600     IErMin= 6 ErrMin= 5.87D-04
 ErrMax= 5.87D-04  0.00D+00 EMaxC= 1.00D-01 BMatC= 4.56D-05 BMatP= 1.68D-04
 IDIUse=3 WtCom= 9.94D-01 WtEn= 5.87D-03
 Coeff-Com:  0.763D-03-0.348D-02-0.552D-01 0.255D+00-0.213D+00 0.102D+01
 Coeff-En:   0.000D+00 0.000D+00 0.000D+00 0.000D+00 0.000D+00 0.100D+01
 Coeff:      0.759D-03-0.346D-02-0.549D-01 0.254D+00-0.212D+00 0.102D+01
 Gap=     0.092 Goal=   None    Shift=    0.000
 Gap=     0.048 Goal=   None    Shift=    0.000
 RMSDP=3.02D-04 MaxDP=4.52D-03 DE=-2.30D-04 OVMax= 0.00D+00

 Cycle   7  Pass 1  IDiag  1:
 E= -619.343185481844     Delta-E=       -0.000023573245 Rises=F Damp=F
 DIIS: error= 2.15D-04 at cycle   7 NSaved=   7.
 NSaved= 7 IEnMin= 7 EnMin= -619.343185481844     IErMin= 7 ErrMin= 2.15D-04
 ErrMax= 2.15D-04  0.00D+00 EMaxC= 1.00D-01 BMatC= 5.37D-06 BMatP= 4.56D-05
 IDIUse=3 WtCom= 9.98D-01 WtEn= 2.15D-03
 Coeff-Com:  0.979D-03 0.175D-03-0.151D-02-0.130D-01-0.382D-01-0.808D+00
 Coeff-Com:  0.186D+01
 Coeff-En:   0.000D+00 0.000D+00 0.000D+00 0.000D+00 0.000D+00 0.000D+00
 Coeff-En:   0.100D+01
 Coeff:      0.977D-03 0.174D-03-0.151D-02-0.130D-01-0.381D-01-0.806D+00
 Coeff:      0.186D+01
 Gap=     0.094 Goal=   None    Shift=    0.000
 Gap=     0.050 Goal=   None    Shift=    0.000
 RMSDP=2.23D-04 MaxDP=2.69D-03 DE=-2.36D-05 OVMax= 0.00D+00

 Cycle   8  Pass 1  IDiag  1:
 E= -619.343189255975     Delta-E=       -0.000003774130 Rises=F Damp=F
 DIIS: error= 1.88D-05 at cycle   8 NSaved=   8.
 NSaved= 8 IEnMin= 8 EnMin= -619.343189255975     IErMin= 8 ErrMin= 1.88D-05
 ErrMax= 1.88D-05  0.00D+00 EMaxC= 1.00D-01 BMatC= 4.41D-08 BMatP= 5.37D-06
 IDIUse=1 WtCom= 1.00D+00 WtEn= 0.00D+00
 Coeff-Com: -0.184D-03 0.103D-03 0.207D-02-0.825D-02 0.220D-01 0.111D+00
 Coeff-Com: -0.244D+00 0.112D+01
 Coeff:     -0.184D-03 0.103D-03 0.207D-02-0.825D-02 0.220D-01 0.111D+00
 Coeff:     -0.244D+00 0.112D+01
 Gap=     0.094 Goal=   None    Shift=    0.000
 Gap=     0.049 Goal=   None    Shift=    0.000
 RMSDP=2.15D-05 MaxDP=2.44D-04 DE=-3.77D-06 OVMax= 0.00D+00

 Cycle   9  Pass 1  IDiag  1:
 E= -619.343189286682     Delta-E=       -0.000000030707 Rises=F Damp=F
 DIIS: error= 6.70D-06 at cycle   9 NSaved=   9.
 NSaved= 9 IEnMin= 9 EnMin= -619.343189286682     IErMin= 9 ErrMin= 6.70D-06
 ErrMax= 6.70D-06  0.00D+00 EMaxC= 1.00D-01 BMatC= 6.42D-09 BMatP= 4.41D-08
 IDIUse=1 WtCom= 1.00D+00 WtEn= 0.00D+00
 Coeff-Com: -0.579D-05 0.243D-06-0.359D-03 0.156D-02-0.612D-02-0.696D-02
 Coeff-Com:  0.310D-01-0.219D+00 0.120D+01
 Coeff:     -0.579D-05 0.243D-06-0.359D-03 0.156D-02-0.612D-02-0.696D-02
 Coeff:      0.310D-01-0.219D+00 0.120D+01
 Gap=     0.094 Goal=   None    Shift=    0.000
 Gap=     0.049 Goal=   None    Shift=    0.000
 RMSDP=4.46D-06 MaxDP=5.64D-05 DE=-3.07D-08 OVMax= 0.00D+00

 Cycle  10  Pass 1  IDiag  1:
 E= -619.343189290037     Delta-E=       -0.000000003355 Rises=F Damp=F
 DIIS: error= 4.01D-07 at cycle  10 NSaved=  10.
 NSaved=10 IEnMin=10 EnMin= -619.343189290037     IErMin=10 ErrMin= 4.01D-07
 ErrMax= 4.01D-07  0.00D+00 EMaxC= 1.00D-01 BMatC= 1.96D-11 BMatP= 6.42D-09
 IDIUse=1 WtCom= 1.00D+00 WtEn= 0.00D+00
 Coeff-Com: -0.998D-06 0.218D-05-0.339D-04 0.107D-03 0.308D-03-0.120D-02
 Coeff-Com: -0.213D-03 0.113D-01-0.145D+00 0.114D+01
 Coeff:     -0.998D-06 0.218D-05-0.339D-04 0.107D-03 0.308D-03-0.120D-02
 Coeff:     -0.213D-03 0.113D-01-0.145D+00 0.114D+01
 Gap=     0.094 Goal=   None    Shift=    0.000
 Gap=     0.049 Goal=   None    Shift=    0.000
 RMSDP=3.46D-07 MaxDP=4.39D-06 DE=-3.35D-09 OVMax= 0.00D+00

 Cycle  11  Pass 1  IDiag  1:
 E= -619.343189290051     Delta-E=       -0.000000000014 Rises=F Damp=F
 DIIS: error= 7.29D-08 at cycle  11 NSaved=  11.
 NSaved=11 IEnMin=11 EnMin= -619.343189290051     IErMin=11 ErrMin= 7.29D-08
 ErrMax= 7.29D-08  0.00D+00 EMaxC= 1.00D-01 BMatC= 8.34D-13 BMatP= 1.96D-11
 IDIUse=1 WtCom= 1.00D+00 WtEn= 0.00D+00
 Coeff-Com:  0.117D-06-0.398D-07 0.776D-05-0.274D-04 0.450D-04 0.133D-03
 Coeff-Com: -0.405D-03 0.465D-02-0.237D-01-0.264D-01 0.105D+01
 Coeff:      0.117D-06-0.398D-07 0.776D-05-0.274D-04 0.450D-04 0.133D-03
 Coeff:     -0.405D-03 0.465D-02-0.237D-01-0.264D-01 0.105D+01
 Gap=     0.094 Goal=   None    Shift=    0.000
 Gap=     0.049 Goal=   None    Shift=    0.000
 RMSDP=1.02D-07 MaxDP=1.13D-06 DE=-1.44D-11 OVMax= 0.00D+00

 Cycle  12  Pass 1  IDiag  1:
 E= -619.343189290052     Delta-E=        0.000000000000 Rises=F Damp=F
 DIIS: error= 1.48D-09 at cycle  12 NSaved=  12.
 NSaved=12 IEnMin=12 EnMin= -619.343189290052     IErMin=12 ErrMin= 1.48D-09
 ErrMax= 1.48D-09  0.00D+00 EMaxC= 1.00D-01 BMatC= 2.86D-16 BMatP= 8.34D-13
 IDIUse=1 WtCom= 1.00D+00 WtEn= 0.00D+00
 Coeff-Com: -0.769D-08-0.304D-07-0.492D-06 0.130D-05-0.278D-05 0.399D-04
 Coeff-Com: -0.463D-04-0.121D-03 0.221D-02-0.144D-01-0.321D-01 0.104D+01
 Coeff:     -0.769D-08-0.304D-07-0.492D-06 0.130D-05-0.278D-05 0.399D-04
 Coeff:     -0.463D-04-0.121D-03 0.221D-02-0.144D-01-0.321D-01 0.104D+01
 Gap=     0.094 Goal=   None    Shift=    0.000
 Gap=     0.049 Goal=   None    Shift=    0.000
 RMSDP=2.61D-09 MaxDP=3.78D-08 DE=-2.27D-13 OVMax= 0.00D+00

 SCF Done:  E(UB3LYP) =  -619.343189290     A.U. after   12 cycles
            NFock= 12  Conv=0.26D-08     -V/T= 2.0041
 <Sx>= 0.0000 <Sy>= 0.0000 <Sz>= 0.5000 <S**2>= 0.7507 S= 0.5003
 <L.S>= 0.000000000000E+00
 KE= 6.168354420873D+02 PE=-1.522921586271D+03 EE= 2.669517272927D+02
 Annihilation of the first spin contaminant:
 S**2 before annihilation     0.7507,   after     0.7500
 Leave Link  502 at Mon Oct 20 18:34:20 2025, MaxMem=    33554432 cpu:         0.0
 (Enter C:\G09W\l601.exe)
 Copying SCF densities to generalized density rwf, IOpCl= 1 IROHF=0.

 **********************************************************************

            Population analysis using the SCF density.

 **********************************************************************

 Orbital symmetries:
 Alpha Orbitals:
       Occupied  (SG) (SG) (SG) (SG) (PI) (PI) (SG) (PI) (PI) (SG)
                 (SG) (SG) (SG) (PI) (PI)
       Virtual   (PI) (PI) (SG) (SG) (PI) (PI) (SG) (SG) (PI) (PI)
                 (SG)
 Beta  Orbitals:
       Occupied  (SG) (SG) (SG) (SG) (PI) (PI) (SG) (PI) (PI) (SG)
                 (SG) (SG) (PI) (PI)
       Virtual   (SG) (PI) (PI) (SG) (SG) (PI) (PI) (SG) (SG) (PI)
                 (PI) (SG)
 The electronic state is 2-SG.
 Alpha  occ. eigenvalues -- -100.48682 -38.12359  -9.05092  -6.81945  -6.81747
 Alpha  occ. eigenvalues --   -6.81747  -2.09895  -1.02474  -1.02474  -1.02404
 Alpha  occ. eigenvalues --   -0.46841  -0.02708  -0.01838  -0.01652  -0.01652
 Alpha virt. eigenvalues --    0.07712   0.07712   0.09816   0.15825   0.17921
 Alpha virt. eigenvalues --    0.17921   0.20332   0.77305   0.85949   0.85949
 Alpha virt. eigenvalues --    0.87070
  Beta  occ. eigenvalues -- -100.48652 -38.12235  -9.05063  -6.81849  -6.81730
  Beta  occ. eigenvalues --   -6.81730  -2.09653  -1.02326  -1.02326  -1.02241
  Beta  occ. eigenvalues --   -0.46631  -0.01715  -0.01587  -0.01587
  Beta virt. eigenvalues --    0.03354   0.09007   0.09007   0.11067   0.17209
  Beta virt. eigenvalues --    0.19152   0.19152   0.21011   0.77384   0.85984
  Beta virt. eigenvalues --    0.85984   0.87277
          Condensed to atoms (all electrons):
               1          2
     1  Na  11.094074   0.047511
     2  Cl   0.047511  17.810904
          Atomic-Atomic Spin Densities.
               1          2
     1  Na   0.961826  -0.004400
     2  Cl  -0.004400   0.046974
 Mulliken charges and spin densities:
               1          2
     1  Na  -0.141585   0.957426
     2  Cl  -0.858415   0.042574
 Sum of Mulliken charges =  -1.00000   1.00000
 Mulliken charges and spin densities with hydrogens summed into heavy atoms:
               1          2
     1  Na  -0.141585   0.957426
     2  Cl  -0.858415   0.042574
 Electronic spatial extent (au):  <R**2>=            691.4096
 Charge=             -1.0000 electrons
 Dipole moment (field-independent basis, Debye):
    X=              0.0000    Y=              0.0000    Z=             -3.7800  Tot=              3.7800
 Quadrupole moment (field-independent basis, Debye-Ang):
   XX=            -29.4508   YY=            -29.4508   ZZ=            -69.1044
   XY=              0.0000   XZ=              0.0000   YZ=              0.0000
 Traceless Quadrupole moment (field-independent basis, Debye-Ang):
   XX=             13.2179   YY=             13.2179   ZZ=            -26.4358
   XY=              0.0000   XZ=              0.0000   YZ=              0.0000
 Octapole moment (field-independent basis, Debye-Ang**2):
  XXX=              0.0000  YYY=              0.0000  ZZZ=            140.0509  XYY=              0.0000
  XXY=              0.0000  XXZ=             19.2527  XZZ=              0.0000  YZZ=              0.0000
  YYZ=             19.2527  XYZ=              0.0000
 Hexadecapole moment (field-independent basis, Debye-Ang**3):
 XXXX=            -97.4389 YYYY=            -97.4389 ZZZZ=          -1991.4115 XXXY=              0.0000
 XXXZ=              0.0000 YYYX=              0.0000 YYYZ=              0.0000 ZZZX=              0.0000
 ZZZY=              0.0000 XXYY=            -32.4796 XXZZ=           -260.6599 YYZZ=           -260.6599
 XXYZ=              0.0000 YYXZ=              0.0000 ZZXY=              0.0000
 N-N= 1.979122760127D+01 E-N=-1.522921586351D+03  KE= 6.168354420873D+02
 Symmetry A1   KE= 5.043337787323D+02
 Symmetry A2   KE= 0.000000000000D+00
 Symmetry B1   KE= 5.625083167748D+01
 Symmetry B2   KE= 5.625083167749D+01
                          Isotropic Fermi Contact Couplings
        Atom                 a.u.       MegaHertz       Gauss      10(-4) cm-1
     1  Na(23)             0.37357     441.94035     157.69530     147.41543
     2  Cl(35)             0.00567       2.48595       0.88705       0.82922
 --------------------------------------------------------
       Center         ----  Spin Dipole Couplings  ----
                      3XX-RR        3YY-RR        3ZZ-RR
 --------------------------------------------------------
     1   Atom       -0.005936     -0.005936      0.011872
     2   Atom       -0.124282     -0.124282      0.248565
 --------------------------------------------------------
                        XY            XZ            YZ
 --------------------------------------------------------
     1   Atom        0.000000      0.000000      0.000000
     2   Atom        0.000000      0.000000      0.000000
 --------------------------------------------------------


 ---------------------------------------------------------------------------------
              Anisotropic Spin Dipole Couplings in Principal Axis System
 ---------------------------------------------------------------------------------

       Atom             a.u.   MegaHertz   Gauss  10(-4) cm-1        Axes

              Baa    -0.0059    -0.838    -0.299    -0.280  1.0000  0.0000  0.0000
     1 Na(23) Bbb    -0.0059    -0.838    -0.299    -0.280  0.0000  1.0000  0.0000
              Bcc     0.0119     1.676     0.598     0.559  0.0000  0.0000  1.0000
 
              Baa    -0.1243    -6.505    -2.321    -2.170  1.0000  0.0000  0.0000
     2 Cl(35) Bbb    -0.1243    -6.505    -2.321    -2.170  0.0000  1.0000  0.0000
              Bcc     0.2486    13.009     4.642     4.339  0.0000  0.0000  1.0000
 

 ---------------------------------------------------------------------------------

 No NMR shielding tensors so no spin-rotation constants.
 Leave Link  601 at Mon Oct 20 18:34:21 2025, MaxMem=    33554432 cpu:         1.0
 (Enter C:\G09W\l9999.exe)
 1|1|UNPC-ALEXHPENVY|SP|UB3LYP|3-21G|Cl1Na1(1-,2)|XC0RP|20-Oct-2025|0||
 #p b3lyp/3-21g||Title Card Required||-1,2|Na,0,0.,0.,5.|Cl,0,0.,0.,0.|
 |Version=IA32W-G09RevD.01|State=2-SG|HF=-619.3431893|S2=0.750677|S2-1=
 0.|S2A=0.75|RMSD=2.606e-009|Dipole=0.,0.,1.4871813|Quadrupole=9.827167
 2,9.8271672,-19.6543343,0.,0.,0.|PG=C*V [C*(Na1Cl1)]||@


 A MAN SHOULD NEVER BE ASHAMED TO OWN HE HAS BEEN IN THE WRONG
 WHICH IS BUT SAYING IN OTHER WORDS,
 THAT HE IS WISER TODAY THAN HE WAS YESTERDAY.

                          -- JONATHAN SWIFT
 Job cpu time:       0 days  0 hours  0 minutes  2.0 seconds.
 File lengths (MBytes):  RWF=      5 Int=      0 D2E=      0 Chk=      1 Scr=      1
 Normal termination of Gaussian 09 at Mon Oct 20 18:34:21 2025.
